18
Properties=species:S:1:pos:R:3:forces:R:3 energy=-10489.561071008460
C -1.282104 -1.500177 0.063744 3.207173 -0.018937 1.172520
C -2.435592 -0.768783 0.008298 -2.775947 -3.228803 -0.862969
C -2.442988 0.581653 -0.058909 0.650372 1.594667 -0.232860
C -1.247835 1.279954 -0.112763 -1.148280 1.522347 1.078201
C 0.031297 0.733025 0.035484 -0.680156 -2.038693 0.002481
C 1.273760 1.443566 0.023258 -2.073743 2.768027 -0.552903
C 2.468763 0.833760 -0.181417 -0.162985 -0.843572 0.896028
C 2.385781 -0.582196 -0.096760 2.621418 0.323862 -0.301896
C 1.279726 -1.306853 0.172007 -1.247680 -1.020912 -0.166983
C -0.010191 -0.709717 0.160616 -0.477145 -0.544286 -0.639832
H -1.108106 -2.621217 0.204255 -0.789292 1.409578 -0.430048
H -3.518475 -1.157166 -0.164073 1.949824 -0.370262 0.629571
H -3.455521 0.987998 -0.078730 0.391787 0.850074 -0.108561
H -1.399244 2.333550 -0.012458 0.343862 1.154060 -0.398014
H 1.036822 2.555880 0.032080 1.007272 -0.963588 -0.020138
H 3.483899 1.263672 -0.184710 -0.654096 0.295311 -0.261375
H 3.377555 -1.028820 -0.249596 -0.334050 -0.601849 0.257689
H 1.337503 -2.384315 0.292271 0.167259 -0.286009 -0.060165
18
Properties=species:S:1:pos:R:3:forces:R:3 energy=-10490.015481686125
C -1.273998 -1.501102 0.022000 0.859323 5.806292 -0.039034
C -2.438403 -0.710422 -0.119538 0.674042 -2.596538 0.168356
C -2.422842 0.682740 -0.291402 -1.936694 1.592847 0.720599
C -1.281428 1.432839 -0.217390 1.746035 -0.437952 -0.502811
C 0.007320 0.731376 -0.088095 -1.919204 -0.914997 0.722756
C 1.234215 1.387313 -0.042453 0.118370 0.695950 -0.267516
C 2.450621 0.754853 0.129794 0.088692 -0.507347 -0.614795
C 2.486470 -0.667905 0.247499 -2.276301 0.378472 0.122484
C 1.251642 -1.396654 0.264111 1.875284 -0.248593 -0.206719
C -0.023954 -0.718961 0.111333 0.355921 -1.438328 -0.589683
H -1.188116 -2.517276 0.146024 -0.314922 -2.488239 0.275195
H -3.346175 -1.315834 -0.047858 -0.396379 0.541620 -0.275231
H -3.395078 1.309197 -0.294992 1.214140 -1.343499 -0.222983
H -1.340335 2.539517 -0.338598 0.266567 -0.736628 0.165969
H 1.151845 2.451407 -0.252851 0.437934 0.292065 0.139098
H 3.355785 1.355724 -0.025460 -0.009133 -0.261721 0.363287
H 3.413298 -1.209227 0.314323 0.472237 -0.180262 0.053680
H 1.472299 -2.542927 0.311031 -1.256690 1.834255 -0.009502
18
Properties=species:S:1:pos:R:3:forces:R:3 energy=-10489.682324369196
C -1.146948 -1.457794 0.121537 -3.613230 -0.797591 -0.212098
C -2.482076 -0.867619 -0.064684 4.038426 0.893374 0.607485
C -2.554237 0.533435 -0.204365 3.272253 0.596759 0.322621
C -1.328472 1.328612 -0.125177 -0.881100 -2.007633 -1.054371
C -0.014954 0.694291 -0.012991 -2.328411 0.300927 -0.218940
C 1.145877 1.439985 -0.251460 1.888834 -0.193370 -0.542155
C 2.415180 0.858332 -0.124853 -1.795975 0.416041 -0.471031
C 2.501771 -0.482408 0.176171 1.088331 -1.620997 1.917114
C 1.396330 -1.302050 0.380899 -0.390934 1.574867 -0.844862
C 0.046643 -0.734280 0.172235 1.591907 -0.443627 0.485785
H -1.251307 -2.568740 0.146396 0.876329 0.631827 0.275634
H -3.350611 -1.464994 0.002262 -0.921561 -0.833205 -0.233468
H -3.457532 1.004585 -0.495575 -1.043081 0.635633 0.027947
H -1.361616 2.381763 -0.430786 -0.036047 -0.098952 0.328726
H 1.072938 2.350421 -0.823997 -0.209682 0.897988 0.428620
H 3.371688 1.280400 -0.310906 0.536054 1.296019 -0.388997
H 3.561109 -0.809784 0.458548 -1.430758 -0.216119 -0.580917
H 1.664320 -2.298826 0.652565 -0.646133 -1.033941 0.154617
18
Properties=species:S:1:pos:R:3:forces:R:3 energy=-10489.385613868895
C -1.087360 -1.548798 0.163384 -3.499211 1.636626 -1.430918
C -2.381865 -0.880241 0.144199 3.282063 -1.809025 -1.413888
C -2.365506 0.508872 -0.088664 -1.380289 1.019512 1.774145
C -1.293308 1.376622 -0.228811 -0.188345 -2.151742 -0.158349
C -0.048604 0.693315 -0.280346 0.947874 3.228023 -0.557986
C 1.192831 1.485914 -0.410364 -0.349280 -1.201120 0.953202
C 2.376358 0.860632 0.000785 -0.635629 0.353165 -1.081711
C 2.373477 -0.520383 0.360806 0.562495 0.230958 0.675958
C 1.250015 -1.282047 0.337591 -0.542731 -0.767231 -0.617120
C -0.021612 -0.687248 -0.065855 2.892046 -2.001563 1.802525
H -0.910113 -2.631985 0.050218 -0.345805 0.375056 0.606392
H -3.227061 -1.509164 -0.084030 -0.845373 0.069877 0.702518
H -3.242022 1.024427 0.278180 -1.037861 0.152027 -0.687059
H -1.511859 2.446976 -0.204952 0.574504 -0.067359 -0.198684
H 1.080565 2.571644 -0.655871 0.334439 -0.897268 0.153821
H 3.343358 1.358951 -0.074856 -0.043078 0.230339 0.212279
H 3.251040 -0.959241 0.831072 0.394820 0.068591 -0.260079
H 1.282607 -2.380702 0.662483 -0.120712 1.527177 -0.473877
18
Properties=species:S:1:pos:R:3:forces:R:3 energy=-10489.631422442882
C -1.152822 -1.493823 -0.037003 0.026277 2.841446 0.995697
C -2.346810 -0.789828 -0.044074 -2.097113 -0.486817 0.101432
C -2.428700 0.654602 -0.189158 1.177710 -2.048893 0.469119
C -1.227456 1.349619 -0.192523 -2.609068 3.163754 -1.988693
C -0.026328 0.754918 -0.017159 1.875404 -1.888284 -0.337738
C 1.198736 1.440212 -0.031028 -1.719496 3.418972 -0.695094
C 2.344324 0.797160 0.008842 2.338491 -2.567449 1.523917
C 2.355094 -0.634414 0.278999 1.684296 0.292267 -0.431921
C 1.230706 -1.406034 0.193705 0.696512 0.986245 -0.306562
C 0.047505 -0.669500 0.010774 -1.829945 -2.530729 0.238825
H -1.115621 -2.487115 0.386990 0.065892 -0.592765 -0.590808
H -3.311809 -1.418346 0.084621 1.290549 1.188060 -0.233957
H -3.383331 1.135558 -0.165903 -0.601855 0.377424 -0.363901
H -1.182650 2.418404 -0.669325 -0.343819 -1.426358 1.532917
H 1.248640 2.578825 -0.120588 -0.448507 -1.355559 0.048675
H 3.241126 1.399903 0.055612 0.561578 -0.228918 -0.096579
H 3.296063 -1.151954 0.503559 0.127738 0.322649 -0.229228
H 1.276230 -2.509987 0.147587 -0.203333 0.543315 0.363780
18
Properties=species:S:1:pos:R:3:forces:R:3 energy=-10489.417845210617
C -1.250386 -1.448962 0.048552 0.490008 0.698887 0.363647
C -2.481695 -0.855353 -0.139134 2.426440 1.484828 0.233513
C -2.462926 0.562183 -0.157190 0.106915 0.235222 1.236340
C -1.360137 1.373447 0.122008 0.821796 -2.021603 -0.969087
C 0.007265 0.757002 0.191283 -1.056111 2.611118 -0.084818
C 1.297304 1.465866 0.093763 -1.392138 -0.643496 0.854588
C 2.469065 0.790660 -0.120313 -1.188740 -1.532097 0.501159
C 2.520827 -0.639031 -0.137655 -3.155684 -0.038701 -0.628256
C 1.291153 -1.365867 0.005105 0.245631 0.608911 -0.610852
C 0.007817 -0.627566 0.196388 0.300169 -4.256715 -1.111291
H -1.276312 -2.537047 0.122238 0.766868 -0.091589 -0.035899
H -3.431659 -1.308065 -0.250993 -0.749926 -1.035061 -0.127478
H -3.459257 0.975378 -0.145188 -0.292760 0.808385 -0.393162
H -1.598757 2.405351 -0.008781 0.583110 1.083061 0.348735
H 1.438551 2.514050 0.336545 -0.705329 0.437316 -0.433367
H 3.301123 1.398747 -0.315486 1.599087 0.587102 -0.114467
H 3.317344 -1.115425 -0.651659 1.157060 -0.676234 0.086252
H 1.252841 -2.480508 -0.311130 0.047642 1.742075 0.885253
18
Properties=species:S:1:pos:R:3:forces:R:3 energy=-10489.958786698031
C -1.235467 -1.412833 0.193892 1.254920 -1.279039 -0.464273
C -2.415257 -0.746187 -0.080915 -0.274664 0.048356 0.790582
C -2.491075 0.663689 -0.175256 4.131896 -0.159975 1.142450
C -1.243430 1.377378 0.014926 -3.429131 0.453080 -0.141211
C -0.023107 0.724525 0.038286 1.158000 -1.936644 0.511845
C 1.172474 1.457830 -0.080332 1.057231 -1.431608 0.790367
C 2.389683 0.776472 -0.046046 0.835667 1.100961 -1.279329
C 2.466320 -0.621613 -0.102875 0.024462 -1.071821 0.986638
C 1.302399 -1.428692 0.033876 1.348939 1.611557 0.453741
C 0.051653 -0.804926 0.203131 -1.172980 2.950765 -1.589617
H -1.174676 -2.522889 0.229529 -0.566685 0.499366 0.186973
H -3.321553 -1.335795 0.024151 -0.305087 -0.041504 -0.455536
H -3.383515 1.202578 -0.169880 -1.643636 0.748909 -0.183394
H -1.312679 2.486549 0.233628 0.283481 -1.049861 -0.678179
H 1.203951 2.522074 -0.116023 -0.314288 0.949428 -0.135473
H 3.350057 1.357129 -0.218926 -1.055331 -0.557984 0.447061
H 3.507680 -1.052568 -0.072392 -1.151850 0.046935 -0.302585
H 1.438357 -2.485988 0.106146 -0.183612 -0.875332 -0.081051
18
Properties=species:S:1:pos:R:3:forces:R:3 energy=-10489.899924587975
C -1.185416 -1.465900 -0.240295 -0.714396 -1.892554 -0.647110
C -2.386354 -0.856061 -0.029581 -1.545777 -0.710872 -0.413721
C -2.465056 0.534327 0.079577 0.426634 -0.072611 1.620087
C -1.291328 1.277463 0.232521 -1.057611 0.115406 -1.590117
C -0.034047 0.667385 0.023528 0.170787 0.763245 0.846205
C 1.149983 1.502679 0.160225 0.748868 -1.686596 -0.714627
C 2.427873 0.989674 0.076237 -1.598277 -3.488781 -0.101566
C 2.432765 -0.493319 -0.054450 0.780049 -0.068209 0.673559
C 1.365388 -1.379001 -0.109384 -1.859405 3.550010 -0.725542
C -0.012251 -0.760640 -0.160558 3.950337 0.031987 0.368934
H -1.264515 -2.530334 -0.565460 0.665375 0.493746 0.610897
H -3.262898 -1.558272 0.002485 0.376259 1.036021 -0.147446
H -3.405257 0.976575 0.361968 -0.527843 0.391923 -0.273133
H -1.439707 2.366073 0.237327 0.497905 -0.118819 0.392861
H 1.044016 2.540284 0.230648 -0.560878 1.760765 0.323521
H 3.402758 1.448426 0.176146 -0.103748 0.597307 -0.028512
H 3.387909 -1.017935 0.048886 0.287616 0.320067 -0.236637
H 1.519224 -2.422702 -0.227107 0.061637 -1.017362 0.041009
18
Properties=species:S:1:pos:R:3:forces:R:3 energy=-10489.720933997824
C -1.210878 -1.457169 -0.090593 1.686226 2.192222 0.851967
C -2.335022 -0.700391 -0.032655 -1.925084 -3.268403 -1.638726
C -2.376549 0.670654 -0.184829 -3.203923 -0.646809 0.232823
C -1.260294 1.350758 -0.164544 2.476469 3.845208 -0.806461
C -0.000235 0.738886 -0.103670 -1.748155 -2.231331 0.536847
C 1.149744 1.447023 0.045247 2.833816 0.363024 -0.127211
C 2.342418 0.762128 0.209592 2.269571 -0.810762 0.571145
C 2.443908 -0.670513 0.177370 -0.822797 -0.123061 0.441317
C 1.226998 -1.409307 0.162741 0.710011 0.504623 -0.462208
C 0.009540 -0.725296 -0.007320 0.635908 0.755214 -0.047882
H -1.158879 -2.516646 -0.128067 -0.276309 -1.049171 0.036837
H -3.194632 -1.359512 -0.259793 -0.481274 0.833045 0.560505
H -3.352226 1.133893 -0.332646 0.008857 0.190179 0.156254
H -1.248877 2.467455 -0.296083 -0.162702 -0.834193 0.172564
H 1.246662 2.513277 -0.094601 -0.512299 0.534275 0.315423
H 3.353787 1.235791 0.503993 -1.666616 -0.096459 -0.880754
H 3.488347 -1.074785 0.211368 -1.086801 -0.122690 0.179053
H 0.989488 -2.480195 0.261309 1.271429 -0.034257 -0.089938
18
Properties=species:S:1:pos:R:3:forces:R:3 energy=-10489.376078288267
C -1.273213 -1.335147 0.357174 3.330872 -1.841065 1.261380
C -2.484991 -0.811099 0.178660 -1.710546 -1.053401 -1.092741
C -2.393377 0.476173 -0.395516 -3.468361 1.097361 0.164582
C -1.314331 1.292705 -0.380977 2.439670 1.150060 -0.934268
C 0.023795 0.731168 -0.233280 -0.132034 0.960300 0.017258
C 1.327691 1.404429 -0.409382 -1.988873 0.947181 0.905814
C 2.477974 0.710778 -0.138624 0.184086 0.904507 -0.106278
C 2.413642 -0.531758 0.454603 0.328848 -3.015655 -1.928424
C 1.231347 -1.271338 0.434486 -0.852482 1.977044 0.523453
C -0.014001 -0.645885 0.120869 0.325964 -0.154905 0.520828
H -1.069699 -2.314416 0.829662 -0.537027 0.059674 -0.299998
H -3.445655 -1.491420 0.283804 1.756845 1.780425 -0.190169
H -3.351668 0.911240 -0.755249 0.416773 0.043206 0.350141
H -1.395558 2.380570 -0.624256 -0.115621 -0.835748 -0.078946
H 1.411775 2.526425 -0.460386 -0.446611 -1.002542 -0.663928
H 3.460069 1.120046 -0.370160 0.025909 0.337233 0.189768
H 3.314518 -1.159110 0.344638 0.109505 0.294325 1.033911
H 1.141428 -2.211969 0.895404 0.324372 -1.652266 0.330452
18
Properties=species:S:1:pos:R:3:forces:R:3 energy=-10489.905338762912
C -1.151651 -1.432275 -0.236980 0.602509 0.580588 1.344689
C -2.409726 -0.819358 -0.075876 1.111611 -1.854665 -0.857320
C -2.524059 0.573696 0.095492 -1.101231 0.836075 -0.717758
C -1.336335 1.253860 0.191258 0.518694 -0.527841 0.022079
C -0.042704 0.670387 0.153843 0.069683 0.262113 -0.138109
C 1.118318 1.488023 0.171882 -0.503233 -1.580117 0.724927
C 2.311870 0.859968 0.009595 2.009953 2.360610 -0.543284
C 2.479288 -0.498683 -0.156122 0.235707 -1.508227 -0.179488
C 1.406925 -1.364873 -0.099544 -0.684661 1.955444 0.197327
C 0.124397 -0.737616 -0.027610 -2.179052 -1.230870 -0.543852
H -1.167288 -2.515816 -0.384032 0.235604 0.044268 -0.087319
H -3.158514 -1.616140 -0.226964 -0.634464 1.080701 0.171736
H -3.480126 1.193006 -0.074955 1.188120 -1.227230 0.635759
H -1.275587 2.304016 0.212511 -0.444708 1.573877 0.130128
H 1.194084 2.474286 0.556520 -0.640545 1.277579 -0.111349
H 3.156955 1.604480 -0.036944 -0.220447 -1.168890 0.133692
H 3.442894 -0.948665 -0.340662 0.603907 0.109436 0.162942
H 1.569831 -2.413292 -0.013935 -0.169997 -0.977059 -0.341852
18
Properties=species:S:1:pos:R:3:forces:R:3 energy=-10489.824684844241
C -1.165605 -1.521287 0.075752 4.558302 0.126498 0.327715
C -2.306379 -0.874200 0.004468 -4.102496 0.296944 0.010645
C -2.516439 0.503277 -0.143227 1.915044 1.992193 -0.014235
C -1.379588 1.323733 -0.149936 0.932438 -1.623616 -0.510820
C -0.057143 0.623292 -0.171817 -1.976694 2.581579 1.429788
C 1.073133 1.462662 -0.113649 -0.881914 0.773726 -0.713131
C 2.305335 0.925852 0.009048 2.057913 1.962954 -0.034516
C 2.520078 -0.433102 0.243247 1.439138 -1.877904 -0.308487
C 1.443211 -1.289012 0.159065 -1.925234 0.057771 0.669858
C 0.075623 -0.756486 0.059313 0.487115 -0.839890 -1.020152
H -0.962603 -2.555812 0.211200 -0.690175 -1.198980 0.176872
H -3.275154 -1.352529 0.145110 0.074268 -0.834356 -0.193542
H -3.524344 0.897234 -0.237712 -0.105901 0.069981 0.203339
H -1.308171 2.433738 -0.149199 -0.501127 -0.687619 -0.179750
H 0.995223 2.576040 -0.232181 -0.189777 -0.968086 0.007882
H 3.061149 1.742699 -0.133539 0.262082 -1.274819 0.549677
H 3.538700 -0.952510 0.415449 -1.353179 1.273439 -0.357816
H 1.567923 -2.368575 0.311980 0.004730 0.164856 -0.043714
18
Properties=species:S:1:pos:R:3:forces:R:3 energy=-10489.909024322234
C -1.233080 -1.426279 0.118298 0.697909 -0.761932 0.147321
C -2.411994 -0.742847 -0.021059 -0.816193 -0.672515 -0.436510
C -2.486158 0.619052 -0.092084 2.987085 2.607488 -0.028445
C -1.289889 1.364076 0.015854 -0.839568 0.366074 -0.540398
C -0.024611 0.720596 0.037900 0.405781 0.282466 0.528073
C 1.193100 1.489622 -0.025870 0.448060 -2.488969 0.050322
C 2.412166 0.772187 -0.088979 -2.198222 -0.011071 -0.055404
C 2.508378 -0.657618 -0.119841 -1.040921 0.489905 1.115241
C 1.293299 -1.427169 0.120325 2.145122 2.563399 -1.222110
C 0.020056 -0.753379 0.133505 0.451844 0.656331 -0.139068
H -1.246641 -2.525292 0.132566 0.048988 0.226032 0.029017
H -3.348770 -1.200625 -0.244114 -0.627071 -1.174810 0.121342
H -3.250442 1.250091 -0.478345 -1.571537 -0.127537 0.171399
H -1.408425 2.485174 -0.096564 0.577904 -1.129761 0.166663
H 1.177852 2.572206 -0.038358 -0.060295 0.227399 0.024029
H 3.269207 1.381409 -0.103418 1.504667 0.558936 -0.195450
H 3.598730 -0.986200 -0.176899 -1.677696 -0.461936 0.056217
H 1.431830 -2.479171 0.075707 -0.436252 -1.148140 0.207252
18
Properties=species:S:1:pos:R:3:forces:R:3 energy=-10489.813709295597
C -1.223499 -1.431807 -0.023854 1.945914 1.446698 0.132696
C -2.414818 -0.717077 -0.109013 2.700828 -0.697241 -0.059866
C -2.438794 0.674951 -0.229104 0.852817 -0.219143 0.259800
C -1.272948 1.420750 -0.250492 0.317565 -1.407358 0.270412
C -0.040643 0.723091 -0.054894 1.005842 -0.985707 0.043456
C 1.191934 1.417528 0.102369 -1.470488 0.945961 -0.256726
C 2.408419 0.809142 0.203831 -0.909332 -3.081864 -0.851029
C 2.468780 -0.727996 0.081290 -0.481246 2.540569 1.336859
C 1.277195 -1.422935 0.217863 0.557171 0.888032 -0.764814
C 0.061587 -0.743203 0.054220 -3.220823 1.118851 -0.107599
H -1.154513 -2.511506 -0.043382 -0.449609 -0.403026 0.128685
H -3.176224 -1.416490 -0.124121 -2.628858 -0.567664 -0.085071
H -3.361682 1.162968 -0.199537 -1.639906 0.881085 -0.290875
H -1.302889 2.498878 -0.392351 0.136856 0.098408 0.138158
H 1.010978 2.520047 0.109070 0.877453 -0.526038 0.150304
H 3.187396 1.519424 0.304630 1.611667 -0.038407 0.037676
H 3.385452 -1.306682 0.079445 0.447202 0.318833 0.095125
H 1.206480 -2.495760 0.359578 0.338382 -0.310414 -0.178145
18
Properties=species:S:1:pos:R:3:forces:R:3 energy=-10490.123359148192
C -1.190487 -1.444269 0.001422 -0.181301 -0.546521 0.061096
C -2.383918 -0.759868 0.040819 -0.354568 0.191897 0.543697
C -2.449936 0.625527 0.049941 -0.046831 2.220042 0.266965
C -1.309758 1.400327 -0.032022 0.459942 -0.693148 0.487011
C -0.059263 0.702781 -0.062853 0.112589 0.215614 -0.391479
C 1.138599 1.419655 -0.176680 2.397280 0.615648 0.775283
C 2.382186 0.766334 -0.028923 -0.576430 2.066123 -0.809528
C 2.475642 -0.618893 0.121795 -0.781124 1.084251 -0.592330
C 1.348727 -1.382371 0.005155 -1.558797 -1.399148 1.896484
C 0.048811 -0.753505 0.000809 -0.169286 0.594627 -0.884635
H -1.275642 -2.532288 -0.014384 0.451171 -0.102851 0.153709
H -3.342216 -1.176912 0.294194 -0.313185 -1.106101 -0.353762
H -3.389232 1.177358 0.232551 0.080379 -0.532696 -0.227402
H -1.309315 2.496814 0.125581 -0.054544 -0.518702 -0.411757
H 1.253688 2.539596 -0.210665 -0.805237 -0.950289 -0.151431
H 3.276846 1.440940 -0.118763 -0.537453 -0.884608 0.314867
H 3.445760 -0.950133 0.299349 1.636686 -1.335259 0.274299
H 1.333008 -2.467714 0.352438 0.247041 1.074491 -0.951759
18
Properties=species:S:1:pos:R:3:forces:R:3 energy=-10489.862254561527
C -1.125354 -1.508050 0.271509 2.172472 -1.791225 0.987309
C -2.352520 -1.054885 -0.070087 -0.443411 1.987343 0.125311
C -2.498641 0.372505 -0.288722 -1.418158 0.384695 -1.036051
C -1.428998 1.281583 -0.293872 1.663846 -3.887908 0.467185
C -0.032893 0.731892 -0.119223 -1.742885 0.128233 0.108215
C 1.133089 1.601341 -0.227164 -0.839249 -2.349640 0.119485
C 2.392122 0.964539 -0.179718 -0.995698 -0.170735 0.461119
C 2.480844 -0.467735 0.171625 2.292441 1.588637 -0.428981
C 1.381537 -1.196975 0.517848 -1.335369 -1.269589 -0.037695
C 0.072876 -0.713094 0.214873 -0.310844 2.274011 0.019999
H -0.953421 -2.566028 0.661258 -0.388914 1.060431 -0.695687
H -3.235682 -1.691315 -0.053623 0.007737 -0.020145 -0.042669
H -3.575155 0.711836 -0.589384 1.881224 -0.274277 0.704094
H -1.555108 2.305776 -0.463775 -0.289544 1.641676 -0.321527
H 0.843391 2.649240 -0.382689 0.878155 -0.049185 -0.031812
H 3.290461 1.595967 -0.277354 -0.110471 -0.531253 -0.111825
H 3.536218 -0.925783 0.142835 -1.555717 0.626924 0.417083
H 1.386509 -2.212207 0.998265 0.531183 0.653319 -0.705704
18
Properties=species:S:1:pos:R:3:forces:R:3 energy=-10489.847903980975
C -1.197473 -1.402601 -0.023737 -1.350599 -2.230381 0.572757
C -2.407077 -0.767655 -0.025355 -1.370579 1.017572 -0.430902
C -2.429109 0.681743 -0.150442 0.877210 -1.902664 -0.162228
C -1.236484 1.384993 -0.289106 -0.282321 -0.405557 1.201120
C 0.045657 0.735947 -0.095676 -2.158682 -0.884480 -0.317986
C 1.272932 1.420606 -0.043138 -2.869276 0.064337 0.292815
C 2.425139 0.785211 0.160978 0.845973 -2.849366 -0.827033
C 2.399638 -0.702790 0.158783 -2.027663 1.663946 0.946884
C 1.188358 -1.423981 0.221304 2.046813 1.088261 -0.514082
C -0.028423 -0.693258 0.053984 2.250291 -0.007793 -0.330306
H -1.097030 -2.532210 0.031468 -0.375778 1.212420 -0.043740
H -3.372551 -1.335584 0.021801 0.799898 0.474221 -0.069749
H -3.388459 1.166941 -0.170014 -0.371080 0.422389 -0.034141
H -1.394046 2.460737 -0.262953 0.657332 0.344222 -0.359871
H 1.012506 2.448042 -0.023687 1.023281 1.579307 -0.199614
H 3.287695 1.405466 0.072287 1.251730 -0.069179 0.386183
H 3.232657 -1.295808 0.381577 1.827445 -0.480969 0.016983
H 1.324214 -2.534633 0.336239 -0.768270 0.964666 -0.128492
18
Properties=species:S:1:pos:R:3:forces:R:3 energy=-10489.995022396419
C -1.300172 -1.474137 -0.005321 -0.061037 -0.226627 0.357925
C -2.498759 -0.729245 0.010260 1.342829 -0.039350 -0.316626
C -2.430955 0.675233 -0.009320 0.559058 0.116051 -0.041604
C -1.210261 1.357930 0.016966 -0.768645 -1.606467 0.148169
C 0.047853 0.682121 0.022825 -2.161952 -1.123681 -0.400351
C 1.215922 1.461368 -0.075195 1.091831 -1.693256 0.547227
C 2.459232 0.839050 0.084417 -1.801845 -1.869224 -1.495028
C 2.460950 -0.613165 -0.022185 -0.705596 0.753582 0.811654
C 1.285303 -1.402406 -0.007483 0.726861 0.957486 0.130292
C -0.013934 -0.803691 0.016607 0.441833 1.261030 0.074401
H -1.326706 -2.598034 0.002754 0.084995 0.978426 0.009662
H -3.525824 -1.088172 0.014919 0.212294 -0.855983 -0.043016
H -3.408511 1.155289 -0.078639 0.234529 0.558850 0.240197
H -1.238585 2.391703 0.214246 0.111813 1.595547 -0.220558
H 1.039707 2.437020 -0.452079 0.285687 1.411358 0.304706
H 3.410691 1.298835 -0.031025 0.711817 0.827350 0.020085
H 3.461954 -1.044667 -0.111257 -0.238227 -0.414643 0.205690
H 1.406512 -2.469231 0.065454 -0.064468 -0.622689 -0.327225
18
Properties=species:S:1:pos:R:3:forces:R:3 energy=-10489.592451317265
C -1.118502 -1.450793 0.219133 1.395288 -3.224623 1.104021
C -2.409307 -1.025097 0.078226 1.822785 0.627093 0.471817
C -2.490491 0.332888 -0.139191 -1.777835 4.499953 -2.132152
C -1.371388 1.207654 -0.382899 -0.576724 -3.886158 1.340519
C -0.066624 0.698360 -0.183533 0.481075 2.018453 -0.947908
C 1.163372 1.467765 -0.390363 -1.469468 -0.425370 1.053111
C 2.363604 0.941073 0.041137 0.976809 3.436881 -0.874510
C 2.493481 -0.377706 0.345050 1.781115 -1.806985 1.029921
C 1.376583 -1.136808 0.279196 -0.695187 -3.040215 -0.087414
C 0.029225 -0.639736 0.150435 1.577537 -1.432378 -0.151927
H -0.908538 -2.540663 0.524433 -0.379265 1.359479 -0.586162
H -3.181984 -1.719644 0.248693 -1.329069 -0.511447 0.008704
H -3.506204 0.884441 -0.368396 1.591527 -1.302499 0.631678
H -1.452825 2.153025 -0.773148 -0.731271 2.497869 -0.669960
H 1.017927 2.498230 -0.695730 0.324400 0.264227 -0.068839
H 3.276894 1.586219 0.053147 -0.674388 -0.303433 -0.110639
H 3.506893 -0.842020 0.649324 -1.546277 0.692380 -0.745485
H 1.606010 -2.229301 0.157413 -0.775268 0.537454 0.737581
18
Properties=species:S:1:pos:R:3:forces:R:3 energy=-10489.820465369363
C -1.136349 -1.438204 0.030195 1.186220 -1.149630 0.439294
C -2.367359 -0.844995 0.109882 0.425746 0.255674 -0.974430
C -2.472321 0.612665 0.024263 -0.924121 -1.366009 -0.285842
C -1.352502 1.435750 -0.051549 0.223475 -2.432940 0.227865
C -0.029416 0.794967 -0.096895 -1.021731 0.064219 -0.131797
C 1.221547 1.404897 -0.119526 1.490818 2.785427 -0.341765
C 2.454545 0.731950 -0.017130 -1.156880 -0.626215 0.464933
C 2.429679 -0.692354 0.111840 -0.308180 0.792995 -0.266907
C 1.206884 -1.326867 0.085347 2.051363 -1.470888 -0.979981
C 0.049854 -0.621438 -0.094951 -2.851306 -1.076261 1.161400
H -0.874296 -2.591186 0.197393 -1.145480 2.312231 -0.551859
H -3.196826 -1.550116 0.028962 -0.532354 0.552416 0.427304
H -3.551713 0.935261 -0.046217 1.252150 0.380799 0.313006
H -1.516901 2.472219 0.086339 0.281902 1.288039 -0.254796
H 1.265490 2.542683 -0.278420 -0.068375 -1.452988 0.453259
H 3.366008 1.313306 0.097711 0.149741 -0.040548 -0.307313
H 3.282967 -1.340053 0.131111 0.927762 0.061020 0.227809
H 1.171001 -2.453833 0.004472 0.021603 1.124071 0.380765
18
Properties=species:S:1:pos:R:3:forces:R:3 energy=-10489.744411232408
C -1.238218 -1.423513 0.012866 4.081696 0.400977 0.277131
C -2.389205 -0.819721 0.058610 -3.374072 1.632536 -0.434840
C -2.406688 0.623851 0.049522 -4.307604 -0.487968 0.816376
C -1.276186 1.368403 -0.060305 -1.589247 0.492122 -0.260328
C -0.035015 0.729637 -0.087113 1.439788 1.691446 0.130989
C 1.204755 1.437846 -0.048761 1.071281 -2.429280 -0.204489
C 2.430236 0.728065 0.017146 -1.197360 2.619668 -0.682658
C 2.471442 -0.640629 -0.016305 -0.366771 -1.474818 1.166540
C 1.264129 -1.337772 0.033612 -0.454459 -1.378479 0.670611
C -0.014442 -0.648731 -0.002227 1.223400 -3.136304 -0.117425
H -1.143562 -2.458096 0.105869 0.157027 -1.918774 -0.151732
H -3.290102 -1.463374 -0.050723 0.141200 0.814308 0.474488
H -3.536063 1.068743 0.261882 2.992215 -0.585740 -0.901080
H -1.469875 2.417217 -0.221459 0.629729 0.647656 0.272967
H 1.252541 2.480196 -0.110586 -0.198991 1.763055 0.034547
H 3.356066 1.307431 0.026120 0.005393 -0.002963 0.087265
H 3.445516 -1.086690 0.218951 -0.266144 -0.436405 -0.452941
H 1.256790 -2.473209 0.282409 0.013333 1.786395 -0.725774
18
Properties=species:S:1:pos:R:3:forces:R:3 energy=-10490.135072390696
C -1.192281 -1.425810 0.009334 -0.766289 -0.109014 -0.249144
C -2.432678 -0.750642 0.054840 -0.037414 -2.085713 0.993129
C -2.448431 0.622976 0.060413 0.742525 1.362669 0.461741
C -1.283398 1.380696 -0.005617 -0.398261 -1.421208 -0.589066
C -0.040070 0.723707 -0.115091 -0.015392 -1.128741 -0.047034
C 1.153914 1.429514 -0.215231 2.768457 1.002312 1.184850
C 2.417893 0.814844 0.035565 -1.866614 -0.161135 -0.566948
C 2.455972 -0.659533 0.161248 1.311169 1.980414 -0.503195
C 1.333707 -1.406400 0.003124 -1.923284 -0.752742 0.162763
C 0.055027 -0.745187 -0.050439 -0.970088 0.625250 -0.243847
H -1.235505 -2.516463 0.010032 0.266952 -0.088955 0.149577
H -3.397213 -1.301181 0.348024 1.394018 0.527308 -0.841027
H -3.343478 1.143429 0.297030 -1.097901 0.474422 -0.096903
H -1.351596 2.447323 -0.021688 0.139862 0.789664 0.072216
H 1.168658 2.562472 -0.240021 -0.259500 -1.170690 -0.177464
H 3.228783 1.581625 0.073535 0.033890 -1.322469 0.098451
H 3.399939 -1.186749 0.272169 0.291974 0.166608 0.097217
H 1.296291 -2.541768 -0.001418 0.379956 1.312499 0.091375
18
Properties=species:S:1:pos:R:3:forces:R:3 energy=-10489.934068573775
C -1.068366 -1.459737 -0.052008 -2.364950 -1.154520 0.411199
C -2.379556 -0.923363 -0.022995 1.708466 1.262849 -0.115989
C -2.536438 0.480922 0.002402 0.358862 0.527467 0.486021
C -1.351634 1.257189 0.041733 -1.344939 -1.820965 0.326220
C -0.054153 0.739127 0.099924 0.435589 -1.310489 -1.580667
C 1.124734 1.561362 0.004738 -0.577828 -3.004495 1.323999
C 2.329820 0.923348 0.100698 0.160925 -1.078561 -0.845554
C 2.458109 -0.522597 -0.065451 3.760819 2.076693 0.289527
C 1.381806 -1.302313 -0.128329 -1.184990 -1.310819 0.336273
C 0.104029 -0.761066 -0.007193 -0.601003 4.281554 0.088978
H -0.986164 -2.531855 0.014001 -0.034369 -0.711494 -0.277692
H -3.231021 -1.545996 -0.043043 -0.922962 -0.959687 0.028191
H -3.537531 1.032139 0.110652 1.321049 -1.020522 -0.382201
H -1.541948 2.272127 0.111362 0.123158 2.389440 0.057295
H 1.091503 2.574450 0.208202 -0.331229 2.337911 0.030375
H 3.196513 1.552293 0.218112 0.656450 -0.016981 -0.058610
H 3.552977 -0.892100 -0.127875 -1.835085 0.217022 0.135102
H 1.356262 -2.376105 -0.175255 0.669837 -0.694042 -0.250749
18
Properties=species:S:1:pos:R:3:forces:R:3 energy=-10489.425381317889
C -1.119137 -1.473220 0.169006 -0.786907 -0.361163 -0.435139
C -2.345753 -0.868350 0.299950 -1.429218 1.521857 -1.763185
C -2.454292 0.486640 -0.233867 -0.264178 -0.363868 0.916888
C -1.348782 1.324316 -0.397892 0.182735 -1.815955 0.893563
C -0.085423 0.755388 -0.165797 2.566369 0.202550 0.568043
C 1.199650 1.560498 -0.021258 -2.070313 -4.157865 -1.003312
C 2.370237 0.818841 0.019081 -0.398297 1.438928 0.393786
C 2.447445 -0.600980 0.231427 -1.459048 3.541751 -1.421718
C 1.308960 -1.322165 0.122201 -0.147191 0.418526 0.595774
C 0.021077 -0.697608 -0.056292 1.295109 0.620748 0.456184
H -1.092347 -2.544965 -0.001457 0.330209 -0.396488 0.801089
H -3.317209 -1.388324 0.528464 1.077321 0.186327 -0.320337
H -3.451728 0.831669 -0.512294 -0.089697 0.213440 0.386629
H -1.346747 2.380500 -0.487648 -0.637154 1.097181 -0.609414
H 1.151282 2.608876 -0.087301 0.082592 1.435688 -0.112693
H 3.265700 1.444411 -0.018334 0.363560 -0.351141 0.230733
H 3.421155 -0.829945 0.472081 2.062743 -1.796915 0.547744
H 1.441708 -2.303929 0.505574 -0.671255 -1.431018 -0.123909
18
Properties=species:S:1:pos:R:3:forces:R:3 energy=-10489.809642249451
C -1.285026 -1.483347 0.086250 2.813497 1.296639 -0.819993
C -2.412302 -0.738754 0.003224 -0.997364 0.619147 -1.113561
C -2.371430 0.729265 -0.270863 -0.922522 -3.171584 1.703306
C -1.185216 1.380087 -0.147646 -1.401258 1.817625 -0.629913
C 0.024382 0.703030 -0.092657 -0.119524 -1.985443 0.531876
C 1.187826 1.443574 -0.034861 1.321129 -1.114421 -0.277618
C 2.406666 0.758703 0.134199 -2.510329 -0.257121 0.307245
C 2.391058 -0.623632 0.291033 -0.718026 -1.157260 -1.112311
C 1.231334 -1.380888 0.041203 2.191592 -1.622336 0.685489
C 0.041050 -0.765052 -0.024070 -4.160955 1.269089 0.037863
H -1.233083 -2.569724 0.098461 -0.250318 -0.119939 0.300898
H -3.398266 -1.286053 -0.003606 0.772596 0.774327 0.094867
H -3.399620 1.062155 -0.252594 0.025337 1.210050 -0.301146
H -1.131897 2.495065 -0.132554 -0.200082 -0.649504 -0.168806
H 1.029552 2.489027 -0.220030 0.628374 0.765470 0.133510
H 3.288987 1.271776 0.234001 2.292461 1.362669 0.211733
H 3.253242 -1.234422 0.461665 1.015552 0.096033 0.114815
H 1.253474 -2.501721 -0.015687 0.227436 0.870165 0.301449
18
Properties=species:S:1:pos:R:3:forces:R:3 energy=-10489.530067196523
C -1.252596 -1.232776 0.605918 0.859347 -1.142430 -1.034841
C -2.410517 -0.742050 0.059258 -1.272499 -0.876746 -0.580768
C -2.478782 0.564754 -0.522080 0.065213 1.166890 0.398559
C -1.304008 1.307721 -0.642524 1.865464 -1.525097 0.852448
C 0.004227 0.605808 -0.344406 -1.795085 2.589778 0.791512
C 1.252173 1.275606 -0.331698 -1.623196 0.702516 -2.288501
C 2.430933 0.649184 -0.227070 1.885684 -0.684300 1.729236
C 2.480825 -0.618759 0.415357 -0.067170 0.303091 -1.152840
C 1.277945 -1.184327 0.679207 -2.557089 -3.127974 0.774591
C 0.010526 -0.602106 0.313092 -0.243069 -1.442418 0.973467
H -1.239663 -2.273431 0.990703 -0.025044 0.552797 0.063924
H -3.293751 -1.461813 -0.044965 0.870833 1.215150 0.556725
H -3.483910 1.048623 -0.662861 0.905075 -0.491660 -0.170201
H -1.172252 2.393486 -0.757995 -0.611510 -0.274424 -0.492121
H 1.188374 2.240400 -0.756949 0.318257 1.500048 -0.423539
H 3.401407 1.120886 -0.381407 -0.146913 0.402530 -0.219504
H 3.450444 -1.083498 0.501479 0.163214 -0.472519 0.395491
H 1.021631 -2.259387 1.052384 1.404238 1.603407 -0.175363
18
Properties=species:S:1:pos:R:3:forces:R:3 energy=-10489.938144229851
C -1.187346 -1.536455 0.098820 2.693598 -0.104499 0.225730
C -2.399087 -0.989846 -0.202582 0.728078 1.572027 0.825003
C -2.453750 0.444742 -0.108433 -2.234701 -0.497569 -0.998248
C -1.325778 1.229180 -0.070368 -0.761383 1.535137 -0.640413
C -0.031286 0.718858 -0.021951 0.451936 -0.453292 -0.361418
C 1.157918 1.521592 -0.196852 -0.018975 -0.289582 0.558006
C 2.423555 0.957692 -0.104658 -0.997371 0.189792 -0.171466