18
Properties=species:S:1:pos:R:3:forces:R:3 energy=-10489.855057121435
C -1.171102 -1.525642 0.078683 0.492328 0.215061 0.479639
C -2.383098 -0.885095 0.065958 -0.762610 0.542653 1.558067
C -2.386183 0.546069 0.033104 0.091755 -0.858186 -0.845708
C -1.286379 1.312166 -0.303618 -0.792604 -0.717186 0.028280
C -0.047889 0.673632 -0.240843 2.569829 0.259832 -0.587826
C 1.192649 1.448524 -0.366363 -1.452458 -0.313205 0.698921
C 2.426450 0.912820 -0.015271 -2.197002 0.946590 -0.218908
C 2.354483 -0.407553 0.346141 2.149482 -4.652771 0.224178
C 1.269954 -1.337246 0.281823 1.524867 4.080956 -0.151583
C 0.032654 -0.749074 0.035004 -1.346899 -0.315996 -0.459373
H -1.073320 -2.567231 0.385006 -0.114986 -0.204946 -0.375518
H -3.333935 -1.397131 0.407024 1.007812 0.382031 -0.705766
H -3.295529 1.018493 0.264133 -1.479778 0.791432 -0.088526
H -1.412644 2.336392 -0.655069 0.200473 0.204232 0.491857
H 1.031910 2.514542 -0.495022 0.215730 0.273531 -0.322152
H 3.285136 1.555919 0.091016 0.509651 -0.070250 -0.103697
H 3.313740 -0.975995 0.543603 -0.588041 0.891121 0.089155
H 1.466394 -2.349136 0.477326 -0.029508 -1.457668 0.288897
18
Properties=species:S:1:pos:R:3:forces:R:3 energy=-10489.656516854007
C -1.197747 -1.275513 0.511288 -1.643766 0.382900 0.789104
C -2.437896 -0.790785 0.079594 3.329162 0.687966 -0.376557
C -2.373526 0.490683 -0.502938 -1.304289 1.168540 -0.510198
C -1.247977 1.283122 -0.636218 -0.719805 -0.311572 0.049442
C -0.028610 0.736746 -0.234338 1.843425 0.767932 0.742797
C 1.219545 1.390564 -0.522499 1.313129 -3.250633 1.300069
C 2.454923 0.632628 -0.148042 -0.845501 3.420062 -2.772657
C 2.428292 -0.644357 0.440081 0.522597 -0.147629 -0.271549
C 1.196717 -1.258988 0.653528 0.257293 1.544447 0.481246
C -0.028543 -0.518958 0.468879 1.361829 -1.018202 -1.406168
H -1.141086 -2.218053 1.022227 -0.007317 -0.813279 0.020602
H -3.165841 -1.517699 -0.096255 -1.883244 -0.687191 0.077475
H -3.257170 0.985934 -0.896929 -0.554233 -0.317014 -0.041528
H -1.333535 2.281881 -1.108033 0.166611 -0.517882 0.228665
H 1.078367 2.278721 -1.136154 0.942101 0.228435 0.053905
H 3.433968 1.052976 -0.641004 -1.564127 -0.730066 1.388468
H 3.443527 -1.114144 0.597220 -1.258160 0.074747 -0.090808
H 1.118510 -2.287536 0.956684 0.047200 -0.487017 0.343743
18
Properties=species:S:1:pos:R:3:forces:R:3 energy=-10489.589541361483
C -1.206438 -1.454779 -0.197235 0.510068 -0.090590 0.443216
C -2.452709 -0.793794 -0.102089 0.934378 -2.554639 0.285974
C -2.475901 0.545087 0.156069 -0.858142 2.309181 0.195153
C -1.333497 1.292770 0.209441 1.704136 -1.623446 -0.251402
C -0.046319 0.741635 0.033101 0.655931 -1.446828 -0.511712
C 1.171242 1.503238 0.172572 1.041611 -2.116282 -1.257720
C 2.427510 0.873072 -0.030668 -1.507607 -0.619213 1.262429
C 2.521942 -0.631396 -0.054353 0.252608 2.046643 1.132411
C 1.334772 -1.361194 -0.146332 0.135952 1.223440 0.442016
C 0.057398 -0.726217 -0.202976 -1.321859 1.277199 0.453638
H -1.179159 -2.567236 -0.026180 0.019730 0.887920 -0.691732
H -3.364836 -1.404193 -0.000174 0.270065 0.221787 -0.216806
H -3.382511 1.109724 0.394609 -0.277130 -0.417073 -0.155407
H -1.242683 2.256980 0.560080 -0.719396 2.566179 0.583756
H 1.230571 2.560750 0.371852 -0.532215 0.507068 0.066280
H 3.233312 1.614308 0.172410 0.232549 -1.179790 -0.407426
H 3.495970 -1.032659 0.382415 -1.159340 0.064007 -1.179200
H 1.233272 -2.399705 0.081602 0.623095 -1.052371 -0.198062
18
Properties=species:S:1:pos:R:3:forces:R:3 energy=-10490.106796856053
C -1.146330 -1.469843 -0.173253 1.812125 -1.050861 0.391110
C -2.386654 -0.926266 -0.177623 -1.621217 0.998370 -0.645808
C -2.525650 0.494586 0.065883 1.757785 0.677269 -0.369527
C -1.332454 1.312442 0.224143 -1.963164 -0.625260 -0.396805
C -0.006054 0.731853 0.195204 -0.897834 1.317409 -0.002042
C 1.202294 1.538685 0.255305 0.251547 -0.725398 -1.194420
C 2.399955 0.870393 -0.011121 0.877504 0.345158 -0.380858
C 2.422649 -0.544152 -0.172232 2.046473 0.008944 -0.393315
C 1.301011 -1.313410 -0.102316 0.386505 0.861781 0.202219
C 0.056391 -0.687734 -0.005136 -1.219320 -0.322265 0.464475
H -0.976916 -2.578856 -0.261512 -0.313378 0.963698 -0.214403
H -3.241858 -1.546504 -0.584810 0.632845 0.700709 0.951918
H -3.519462 0.996532 0.006805 0.701083 -0.389621 0.087292
H -1.524150 2.427953 0.223266 0.561680 -1.130991 0.292853
H 1.215750 2.650324 0.188381 -0.407592 -0.714070 0.469403
H 3.390029 1.403675 -0.202192 -1.355949 -0.374054 0.470345
H 3.391974 -1.069582 -0.453210 -0.947991 0.761775 0.598237
H 1.441607 -2.361641 -0.094083 -0.295907 -1.309299 -0.324566
18
Properties=species:S:1:pos:R:3:forces:R:3 energy=-10489.799861970858
C -1.170420 -1.470679 0.117670 -0.999550 -1.509827 0.045515
C -2.425186 -0.863678 0.029593 1.764075 1.411528 0.366348
C -2.506533 0.556310 -0.219317 -2.495299 -0.495248 0.181990
C -1.397609 1.341425 -0.331997 2.859056 0.049684 -0.165657
C -0.075710 0.724547 -0.101687 1.438418 0.298611 -0.926948
C 1.239794 1.469419 -0.134716 -3.594120 0.891244 0.054478
C 2.429823 0.833293 0.139420 1.217380 2.265461 0.437577
C 2.537463 -0.565761 0.246804 -2.021453 0.115135 -0.569967
C 1.328980 -1.320432 0.166834 1.959054 0.046781 0.891678
C 0.036412 -0.720803 0.055030 0.030116 0.597285 0.019421
H -1.165166 -2.611093 0.222135 0.299003 1.479658 0.041612
H -3.319718 -1.359729 0.342268 -0.594730 -0.641849 -0.289047
H -3.595641 0.940436 -0.278868 1.809235 -0.149677 -0.101905
H -1.305659 2.399792 -0.676206 -0.730959 -0.605031 0.496230
H 1.087365 2.614981 -0.314520 0.761386 -1.924604 0.504189
H 3.309233 1.552316 0.399203 -1.090261 -1.457438 -0.837017
H 3.548085 -0.954661 0.262584 -0.023682 -0.644811 0.396684
H 1.477183 -2.387095 0.429666 -0.590555 0.276779 -0.545672
18
Properties=species:S:1:pos:R:3:forces:R:3 energy=-10489.608427604284
C -1.208567 -1.334752 0.449193 -0.597717 -1.032501 -0.772156
C -2.387273 -0.814122 -0.003603 -2.195552 0.965984 0.272696
C -2.423593 0.580341 -0.453150 -3.463141 -2.798807 1.250980
C -1.315705 1.280240 -0.479691 3.213043 2.742777 -0.931487
C -0.001289 0.696551 -0.317494 0.395341 -0.384392 2.146342
C 1.281470 1.364208 -0.390359 -2.187622 0.435424 0.388038
C 2.446486 0.707247 -0.141787 0.952325 -0.791496 -0.929596
C 2.407105 -0.617472 0.254720 0.287612 -2.295321 1.624726
C 1.203817 -1.201376 0.737565 2.324091 -1.147870 -1.310699
C -0.010508 -0.639725 0.333611 0.788280 1.932584 -1.011432
H -1.052565 -2.397890 0.596030 -0.552377 -0.338088 0.769778
H -3.404893 -1.312254 0.187221 1.575657 0.310577 -0.616163
H -3.419636 1.082581 -0.582637 0.843939 -0.519375 -0.000774
H -1.456932 2.369646 -0.651179 0.629477 -0.446916 -0.206709
H 1.312084 2.439405 -0.432728 -0.161989 0.609797 -0.740267
H 3.429436 1.079847 -0.423999 -0.025145 0.609086 0.207492
H 3.354332 -1.259802 0.302066 -1.139551 1.048451 0.123371
H 1.334277 -2.253432 1.136829 -0.688439 1.097051 -0.264577
18
Properties=species:S:1:pos:R:3:forces:R:3 energy=-10489.932926793279
C -1.157512 -1.398399 0.404414 -1.441858 -1.254970 -0.523525
C -2.420836 -0.905031 0.028440 2.848186 0.149857 -0.104692
C -2.409160 0.435251 -0.391934 0.208893 0.809990 0.224901
C -1.317873 1.312489 -0.325952 -0.019939 -0.820398 1.295239
C -0.038945 0.779034 0.032387 -0.210649 0.228734 -0.399318
C 1.170888 1.537714 -0.029345 1.475228 -1.571987 -1.252250
C 2.408000 0.835370 -0.151256 -2.133292 -0.351265 1.088931
C 2.459546 -0.567240 0.021980 -1.422418 -0.832083 0.249795
C 1.261215 -1.340019 0.228596 2.481259 2.198182 0.009632
C -0.004924 -0.658655 0.259546 2.197682 0.418425 0.037891
H -0.936781 -2.459561 0.598774 -0.661693 0.115276 0.070802
H -3.183508 -1.616251 -0.175156 -1.131581 -0.272470 0.150332
H -3.292374 0.875606 -0.769033 -1.338719 0.402217 -0.353046
H -1.493841 2.398841 -0.339143 0.184166 -0.310092 -0.542037
H 1.199729 2.573111 -0.356840 -0.401033 0.320162 0.343836
H 3.337547 1.325603 -0.280267 0.865509 0.892534 -0.244790
H 3.445719 -1.071857 0.026855 -0.522870 0.148717 -0.135458
H 1.514630 -2.389091 0.379338 -0.982278 -0.269384 0.082741
18
Properties=species:S:1:pos:R:3:forces:R:3 energy=-10489.943468875530
C -1.189166 -1.427734 0.201524 -2.343670 2.287921 -0.652304
C -2.377612 -0.771533 -0.124218 -0.708573 -0.402373 -0.029754
C -2.406236 0.635271 -0.316799 0.038809 -0.066278 0.320926
C -1.290202 1.402273 -0.237402 3.023535 -0.211227 -1.159260
C -0.034294 0.705173 -0.081290 -1.343799 0.294434 0.512888
C 1.171800 1.361824 -0.178701 3.781779 1.434718 0.627650
C 2.435284 0.750069 0.024717 -2.839816 -0.582765 -0.275921
C 2.416441 -0.638505 0.236196 2.453220 0.128972 -0.159964
C 1.260870 -1.337552 0.280950 -1.521657 -1.276819 1.274979
C -0.018473 -0.682548 0.231689 1.921854 -0.751998 -0.729473
H -1.317725 -2.444350 0.353838 0.561744 -2.219332 0.354439
H -3.308830 -1.381327 -0.309574 0.825515 0.691046 0.404827
H -3.256885 1.226861 -0.492785 -1.846165 0.097608 -0.472427
H -1.087240 2.419662 -0.665969 -1.109811 -0.460541 0.792983
H 1.345214 2.449596 -0.244931 -1.100421 -0.085539 -0.320440
H 3.338886 1.311173 0.039870 0.728768 0.513070 -0.100420
H 3.414443 -1.119870 0.330251 -0.666660 -0.104378 0.055004
H 1.248620 -2.422886 0.552974 0.141309 0.711497 -0.442790
18
Properties=species:S:1:pos:R:3:forces:R:3 energy=-10489.436460525667
C -1.232639 -1.528450 0.275784 0.429932 0.473621 -1.597927
C -2.480741 -0.877944 0.072955 4.305984 0.928352 0.841893
C -2.386639 0.532040 -0.023750 -1.282589 1.810205 -2.025553
C -1.275141 1.302980 -0.449662 -0.830155 -1.471798 0.991337
C -0.022571 0.635123 -0.339665 0.519708 -0.352088 -0.261771
C 1.163875 1.459870 -0.356931 0.182083 -1.815725 -0.245428
C 2.405206 0.968658 0.044889 -3.072544 -2.032733 -0.769100
C 2.470045 -0.421089 0.345811 0.256138 -0.133208 1.138471
C 1.334612 -1.248887 0.413624 0.245249 -1.655496 -0.005163
C 0.030971 -0.853844 -0.028529 -0.537215 2.886556 1.859645
H -1.192840 -2.595678 0.508716 -0.020594 -0.034037 -0.063878
H -3.348493 -1.450057 0.002945 -1.782275 -0.637041 0.430293
H -3.299377 1.155060 -0.021961 -0.132428 -0.591620 0.035066
H -1.437126 2.386841 -0.734912 0.500380 -1.177090 0.548658
H 1.077499 2.394982 -0.860017 -0.145265 1.180020 0.129035
H 3.242919 1.568165 0.078017 1.959444 1.320939 -0.000667
H 3.462353 -0.771564 0.714415 -0.755985 -0.173774 -0.229675
H 1.412013 -2.311878 0.855273 0.163702 1.475458 -0.778835
18
Properties=species:S:1:pos:R:3:forces:R:3 energy=-10489.811496354017
C -1.154299 -1.477749 -0.012832 -0.176782 -1.402228 -2.305851
C -2.412787 -0.873972 -0.240027 1.517227 1.634796 1.408108
C -2.497976 0.547199 -0.015819 1.592147 0.212913 -0.441310
C -1.300590 1.310446 0.227667 -3.194923 0.012636 -0.186310
C -0.052028 0.699552 0.190897 1.470768 1.415958 0.527657
C 1.170368 1.498684 0.175935 0.557370 -2.969915 -1.293199
C 2.370564 0.858106 -0.163944 -0.554618 2.193382 1.054261
C 2.457775 -0.515405 -0.108691 -0.155062 -1.800725 -0.296986
C 1.384906 -1.340863 -0.021983 -3.489431 -0.539213 0.055769
C 0.027910 -0.708970 0.063873 1.606187 -1.266189 0.224914
H -0.920845 -2.552531 -0.371185 -0.867814 1.277719 0.992996
H -3.327462 -1.377743 -0.455409 -0.487289 -0.802700 -0.254171
H -3.423462 1.111538 -0.229644 0.216426 -0.397421 0.391729
H -1.480735 2.404556 0.386383 0.630099 -0.775174 -0.200675
H 1.218364 2.541278 0.169469 -0.581267 1.835665 0.173294
H 3.257485 1.482566 -0.362989 -0.195271 -0.304889 0.196656
H 3.340603 -1.082514 -0.158678 1.881944 -0.140349 -0.342498
H 1.409536 -2.491747 -0.110304 0.232621 1.807285 0.299877
18
Properties=species:S:1:pos:R:3:forces:R:3 energy=-10489.621115688673
C -1.255930 -1.346787 0.356127 0.946811 -1.775735 1.069181
C -2.382088 -0.716199 -0.113915 -2.541359 -2.583418 1.773315
C -2.474031 0.659891 -0.317075 -0.957910 -0.014747 -0.411303
C -1.311892 1.315877 -0.489455 1.510057 0.644121 0.398436
C -0.053188 0.589306 -0.208864 0.385712 3.164124 -0.580343
C 1.169527 1.299892 -0.336219 2.208892 2.329611 0.355621
C 2.478831 0.767184 -0.169199 -2.730867 -1.384798 0.015359
C 2.485832 -0.610780 0.266569 1.008012 0.195629 -0.318222
C 1.338963 -1.288384 0.640211 -1.573337 1.110821 -0.584599
C 0.012374 -0.686796 0.340864 0.491070 -1.689546 0.045424
H -1.304088 -2.384045 0.857398 -0.109814 1.324029 -1.135451
H -3.330260 -1.370351 -0.033692 1.159870 1.170710 -0.237067
H -3.429965 1.211363 -0.288182 0.224952 -0.466031 -0.449025
H -1.431311 2.398876 -0.757413 1.009932 -0.791329 0.297222
H 1.161443 2.444477 -0.371290 -0.370398 -1.392688 -0.619434
H 3.387200 1.323430 -0.408082 -0.148320 -0.011871 0.199372
H 3.451878 -1.159394 0.248544 -0.439811 0.296835 0.424083
H 1.395108 -2.264206 1.122177 -0.077745 -0.131404 -0.244687
18
Properties=species:S:1:pos:R:3:forces:R:3 energy=-10489.576409040792
C -1.129341 -1.477421 0.131630 0.395790 -1.118011 0.387602
C -2.349160 -0.939624 -0.187391 0.082299 1.995403 -0.825046
C -2.423830 0.537849 -0.200283 -1.019292 -3.696239 -0.127691
C -1.327014 1.313918 -0.044621 -1.746895 3.162834 -1.112271
C -0.073103 0.756345 -0.161481 1.296509 -0.796596 1.430068
C 1.120194 1.503759 -0.182228 1.099531 -0.256635 -0.961917
C 2.318962 0.830882 -0.080643 1.489498 0.295297 0.811109
C 2.483524 -0.549022 0.246473 -3.696819 1.345629 -0.372215
C 1.338535 -1.314261 0.403639 -1.066461 4.086056 -1.691266
C 0.028536 -0.652642 0.093155 1.523287 -2.042563 1.263889
H -1.014723 -2.548682 0.478710 -0.067297 0.947482 -0.795508
H -3.182722 -1.495779 -0.655295 0.124253 0.008860 0.978638
H -3.454566 0.788999 -0.329227 -0.551283 1.284659 0.005597
H -1.498780 2.455300 -0.062849 0.570496 -1.591647 0.105684
H 1.188445 2.553013 -0.498717 -0.462861 -0.072051 0.424117
H 3.256518 1.414658 -0.055253 -0.339783 -0.016499 -0.396597
H 3.413571 -0.962877 0.319790 2.651428 -1.059891 0.366081
H 1.443643 -2.321218 0.585971 -0.276911 -2.483229 0.515478
18
Properties=species:S:1:pos:R:3:forces:R:3 energy=-10490.075916113090
C -1.282676 -1.405583 0.214213 2.156982 -0.766672 0.162151
C -2.442778 -0.765249 -0.068836 0.581523 1.223460 0.158095
C -2.426007 0.620541 -0.336652 0.611610 0.712944 0.033977
C -1.211587 1.353440 -0.337394 -2.226971 -1.677236 -0.194694
C -0.019106 0.717699 -0.132074 2.642168 -1.499338 1.131191
C 1.254555 1.463693 -0.152287 -1.772045 -1.704636 -0.226013
C 2.418879 0.789430 0.088181 -0.086138 -1.242830 -1.096911
C 2.437633 -0.632850 0.243163 -1.026171 0.151011 0.345933
C 1.259466 -1.391506 0.332917 1.201270 0.963656 0.485134
C -0.027706 -0.726778 0.183785 0.849001 0.046828 -0.285578
H -1.256433 -2.485793 0.423052 -0.117351 0.259601 0.024423
H -3.302923 -1.359349 0.043494 -1.618647 -0.358933 -0.211065
H -3.366408 1.128077 -0.509686 -0.219609 0.231028 -0.083561
H -1.118315 2.382409 -0.512726 -0.543143 1.709006 -0.354263
H 1.185044 2.443387 -0.591555 0.285752 0.731696 0.219270
H 3.369488 1.177797 -0.190838 0.861117 0.989703 0.207755
H 3.411274 -1.139870 0.273629 -0.224437 0.094883 0.164686
H 1.547004 -2.418767 0.647976 -1.356889 0.144638 -0.482427
18
Properties=species:S:1:pos:R:3:forces:R:3 energy=-10489.854714474288
C -1.127739 -1.470204 -0.019865 -1.344789 0.356694 0.449927
C -2.327131 -0.810710 -0.130734 -1.424568 0.151605 1.334689
C -2.487824 0.604153 -0.020691 1.267249 -0.724333 -0.263590
C -1.356255 1.366784 0.045839 1.939064 -1.511357 -0.195841
C -0.047897 0.693656 0.084904 -0.369041 1.713546 0.785299
C 1.141379 1.508913 0.124904 1.711016 -1.227600 0.149951
C 2.407697 0.806592 -0.100480 -2.926236 3.543881 1.262639
C 2.431775 -0.551326 -0.118334 0.913535 -3.264753 -1.200800
C 1.320689 -1.410378 -0.013158 -0.364013 1.993003 0.648925
C 0.031952 -0.747412 0.162129 2.442290 0.316726 -1.756655
H -1.058681 -2.531439 0.061252 -0.218394 -0.950456 -0.202663
H -3.262847 -1.342841 0.025599 -0.089513 -0.522217 -0.591263
H -3.453895 1.050994 0.018042 -0.891090 0.262349 -0.179283
H -1.310058 2.423687 -0.093683 -0.278715 0.941599 0.289514
H 1.145266 2.600608 0.471000 -0.217014 -1.375799 -1.007092
H 3.304342 1.418125 -0.142784 0.255891 -0.126192 -0.057585
H 3.407229 -0.992072 -0.422927 -0.440926 -0.054304 0.465438
H 1.387854 -2.508714 -0.088850 0.032225 0.484494 0.071069
18
Properties=species:S:1:pos:R:3:forces:R:3 energy=-10489.992238169594
C -1.095490 -1.522805 0.044575 0.468768 0.305632 0.300234
C -2.305069 -0.943904 -0.194083 -0.266278 2.559399 0.562820
C -2.465508 0.529687 -0.089216 2.115852 -2.029183 0.235037
C -1.340677 1.317746 0.092891 -1.315519 1.288889 -0.522787
C -0.057235 0.716405 0.094897 0.479978 1.027701 0.871396
C 1.117313 1.497633 0.118270 1.256980 0.241332 -0.549057
C 2.378108 0.939171 -0.143109 -3.740689 -2.274941 0.660064
C 2.374690 -0.511180 -0.199633 1.984593 0.462937 -0.077849
C 1.317219 -1.356537 0.120635 1.141261 2.212292 -0.312954
C 0.075325 -0.670595 0.201757 -1.335039 -3.321842 -0.649270
H -0.972264 -2.624037 0.083423 -0.035544 0.572586 -0.146657
H -3.194396 -1.485696 -0.409530 -0.730298 -0.766429 -0.092472
H -3.428995 0.951294 -0.039110 -1.312119 0.502298 -0.275660
H -1.480836 2.471737 0.094480 0.490548 -1.876814 0.164384
H 1.004436 2.564229 0.255001 0.004518 0.458245 -0.084309
H 3.234387 1.526666 -0.253659 1.467878 0.771975 -0.225828
H 3.344095 -0.922546 -0.519207 -0.146960 -0.294756 0.350814
H 1.509454 -2.429466 0.229328 -0.529375 0.172293 -0.205709
18
Properties=species:S:1:pos:R:3:forces:R:3 energy=-10489.937180577872
C -1.118936 -1.430784 -0.274481 0.018951 -1.503157 -0.820210
C -2.340852 -0.847917 0.001230 -1.223690 -1.318819 1.485048
C -2.478855 0.514919 0.348276 1.353089 0.710368 -1.771995
C -1.329787 1.290115 0.099643 -1.720636 0.526712 0.727363
C -0.076259 0.699900 -0.097485 1.708606 1.310669 0.136157
C 1.098793 1.493966 0.091651 -0.033788 -0.776042 0.152082
C 2.338520 0.870795 0.201581 -1.765565 0.511986 -0.182172
C 2.449917 -0.526331 0.060619 1.157500 -2.332091 -0.283895
C 1.369741 -1.379495 -0.211554 -0.726019 2.459500 -0.475604
C 0.121275 -0.674482 -0.297148 -2.139282 -2.672188 0.486214
H -1.171298 -2.567166 -0.490438 0.523966 1.702756 0.389527
H -3.216444 -1.542877 0.228216 0.934923 0.806376 -0.664129
H -3.455144 0.971144 0.506090 0.030788 -0.016971 0.258423
H -1.356529 2.398551 0.156138 -0.063655 -0.558437 0.155047
H 0.998367 2.552254 0.346911 0.026232 0.011313 -0.243648
H 3.073726 1.597143 0.460922 1.450608 -0.184937 0.178638
H 3.414140 -1.075439 0.154676 -0.203343 0.802609 0.061846
H 1.313413 -2.460955 -0.436446 0.673247 0.518418 0.410324
18
Properties=species:S:1:pos:R:3:forces:R:3 energy=-10489.821191013323
C -1.153055 -1.460145 0.107850 2.078013 0.232448 0.314148
C -2.337591 -0.909272 -0.226031 -1.241090 1.935464 0.380779
C -2.498345 0.530916 -0.223656 -0.924059 0.053711 0.279957
C -1.354617 1.315549 -0.069080 -1.953464 0.628197 0.484885
C -0.116224 0.698139 0.061485 3.718109 0.602883 -1.209940
C 1.125015 1.453289 -0.299865 -1.030681 1.323219 1.111111
C 2.357416 0.896847 -0.132938 0.131935 -2.033483 0.002835
C 2.480580 -0.541133 0.171440 2.412660 3.134164 -0.333363
C 1.409826 -1.274441 0.377221 -2.892726 -0.966541 -0.041771
C 0.076612 -0.709665 0.274877 -1.326269 -0.269512 -0.675662
H -1.176186 -2.516066 0.155509 0.497655 -1.371079 0.260870
H -3.168708 -1.604395 -0.298230 -0.395484 0.230428 -0.285092
H -3.540303 1.019778 -0.250856 1.534207 -0.804189 -0.129971
H -1.440857 2.425921 0.113372 0.150206 -1.014082 -0.663447
H 1.131303 2.571241 -0.604017 -0.541546 -1.722266 0.520105
H 3.242737 1.480865 -0.309423 0.478458 0.225909 -0.184943
H 3.451808 -1.052920 0.223728 -0.006146 0.498489 -0.070718
H 1.624027 -2.325425 0.478329 -0.693134 -0.681319 0.240634
18
Properties=species:S:1:pos:R:3:forces:R:3 energy=-10489.668497824281
C -1.199409 -1.585372 0.222738 2.884006 -0.720901 0.756177
C -2.331930 -1.001744 -0.163748 -1.276189 3.425891 0.207949
C -2.413760 0.473065 -0.273105 -1.742445 -1.086371 -0.316009
C -1.347675 1.315730 -0.169711 0.180786 -2.777807 -0.120333
C -0.034566 0.668216 -0.031964 -1.817875 0.829000 0.452326
C 1.090714 1.504230 -0.144893 -0.100988 1.053511 -1.534507
C 2.356020 0.965665 -0.214163 0.695298 0.213600 0.241453
C 2.484352 -0.358469 0.227690 0.770367 -1.325849 -1.378289
C 1.402541 -1.218995 0.405152 -1.349519 -0.700258 0.018768
C 0.031153 -0.764826 0.208460 1.000422 0.299692 0.458473
H -1.187776 -2.637419 0.629699 0.240233 0.891915 -0.739411
H -3.293973 -1.445853 -0.172493 -0.817690 -1.030841 -0.046526
H -3.455992 0.932703 -0.398458 1.321649 -0.739728 0.038490
H -1.672027 2.317398 -0.305024 0.911625 1.436328 0.088250
H 0.847974 2.538205 -0.507567 0.481436 -0.679056 0.507639
H 3.275255 1.452193 -0.646725 -1.024931 -0.024648 0.709221
H 3.475643 -0.813199 0.023091 -0.363856 0.028780 0.732377
H 1.564875 -2.314255 0.586190 -0.003160 0.909336 -0.075024
18
Properties=species:S:1:pos:R:3:forces:R:3 energy=-10489.198888493125
C -1.173936 -1.448064 -0.005959 -2.516299 -1.512957 0.282964
C -2.342480 -0.747908 0.163052 -2.129352 -0.353113 1.206670
C -2.485141 0.699862 0.192967 1.657856 -1.029801 -2.018353
C -1.287609 1.391562 -0.231524 -3.732939 -0.571500 1.373659
C -0.141169 0.659733 -0.190681 4.689541 0.587287 0.037695
C 1.143561 1.344463 -0.133246 1.231260 2.016763 -0.480788
C 2.429622 0.785595 0.065924 -2.664388 0.381437 -0.554745
C 2.539694 -0.573437 0.171842 -4.012337 -2.404260 -0.857250
C 1.324958 -1.344933 0.009498 1.102541 -0.117499 1.326039
C -0.036603 -0.745040 -0.088684 4.816660 -0.563631 -0.005972
H -1.309859 -2.538035 0.052593 0.723443 0.213479 -0.126217
H -3.130389 -1.522441 0.444132 -0.002492 1.729166 -0.409482
H -3.489910 1.130514 0.238228 0.288759 0.170222 0.170682
H -1.211227 2.450796 -0.429839 -0.270486 0.394194 0.127574
H 1.194481 2.477724 -0.289012 -0.537672 -1.340059 0.253933
H 3.335583 1.307034 0.033529 1.114731 1.581407 0.098342
H 3.440456 -1.116622 0.250094 1.226180 -0.472451 0.280030
H 1.517759 -2.449156 0.258682 -0.974256 1.292719 -0.707447
18
Properties=species:S:1:pos:R:3:forces:R:3 energy=-10489.662675612744
C -1.172057 -1.473242 0.334927 0.376451 -0.415471 -1.547687
C -2.393188 -0.869263 -0.005274 1.574737 0.893852 0.162595
C -2.478395 0.528963 -0.226686 0.923444 1.917204 1.186440
C -1.316084 1.319781 -0.017889 -1.428608 -0.514395 -0.308967
C -0.044239 0.691848 0.081953 -0.611684 2.001723 -1.010372
C 1.139723 1.424122 -0.213573 0.537585 0.984720 0.880683
C 2.377819 0.889165 -0.220697 -1.771305 -3.489451 0.335921
C 2.468575 -0.534609 -0.050285 3.480371 0.003219 0.586208
C 1.377376 -1.303346 0.166829 -2.662798 -0.329442 -0.071746
C 0.011401 -0.689945 0.194160 1.982224 -2.013223 0.610357
H -0.980208 -2.591036 0.321143 -0.728708 1.138351 0.346166
H -3.256977 -1.420290 -0.167286 -1.681256 -1.386558 -0.070389
H -3.401867 1.169089 -0.378599 0.622105 -1.389578 0.045268
H -1.453451 2.415924 0.028824 0.409338 -0.407378 -0.295381
H 1.298966 2.487764 -0.278462 -1.458028 0.864849 -0.144691
H 3.194021 1.498850 -0.333649 2.236791 1.304699 -0.379680
H 3.565277 -0.957229 0.061886 -2.162802 0.416918 -0.480941
H 1.380717 -2.406160 0.228806 0.365278 0.418888 0.155548
18
Properties=species:S:1:pos:R:3:forces:R:3 energy=-10489.451145303439
C -1.123091 -1.410823 -0.269140 0.698658 -2.239051 0.231461
C -2.381079 -0.880511 -0.277964 0.231425 2.607108 0.590505
C -2.466739 0.519835 0.049439 1.713606 -0.070419 0.336368
C -1.309948 1.304764 0.250467 -1.167720 2.025403 0.639403
C -0.062388 0.700615 0.381767 2.948285 0.808816 -2.414580
C 1.195980 1.514894 0.093354 -4.434113 1.614557 1.960714
C 2.318848 0.839480 -0.122451 2.689338 1.433998 -0.585892
C 2.419494 -0.534437 -0.151020 1.123591 -2.552229 0.181848
C 1.325405 -1.359541 0.009080 0.729429 0.408366 -0.528404
C 0.070162 -0.720035 0.145789 -1.801075 -0.288761 -0.545014
H -1.021656 -2.489903 -0.579216 0.114532 0.897815 0.312963
H -3.304770 -1.355931 -0.571050 -0.051927 -0.593566 -0.062835
H -3.386677 0.982080 0.266786 -1.503427 0.596330 -0.337800
H -1.312672 2.529128 0.323444 -0.383040 -3.050275 -0.061026
H 1.052376 2.696470 0.141007 0.607201 -2.492909 -0.214043
H 3.245768 1.387302 -0.349047 -0.186457 0.052775 0.065475
H 3.425861 -1.007875 -0.328642 -0.888180 0.500557 0.115613
H 1.461027 -2.434320 -0.205352 -0.445051 0.350105 0.320174
18
Properties=species:S:1:pos:R:3:forces:R:3 energy=-10489.691310014401
C -1.132873 -1.520513 -0.009204 -2.321061 2.801047 0.239312
C -2.308192 -0.772191 0.154807 -2.738457 -0.924813 -0.267611
C -2.457666 0.655538 0.103423 -0.243052 -0.500940 -0.515324
C -1.289646 1.403719 -0.110670 -1.941084 0.529290 0.691846
C -0.051229 0.723480 -0.169395 0.354162 -0.781899 0.591056
C 1.155348 1.447325 -0.123929 0.974681 0.871953 0.602760
C 2.405085 0.772706 0.031466 -2.067653 1.118321 -0.682213
C 2.450424 -0.613815 0.072137 -2.149742 -0.188474 0.200340
C 1.256347 -1.353330 0.069422 1.316979 -0.205045 -0.287830
C 0.018531 -0.759864 -0.066962 0.538616 2.765197 -0.341945
H -1.079133 -2.545629 -0.204653 -0.228807 -1.810835 0.215263
H -3.365172 -1.226929 0.263373 1.805765 -0.119388 -0.218946
H -3.576762 1.022649 0.092134 2.432260 -0.219488 0.259850
H -1.410063 2.520248 -0.033695 0.629274 -0.892389 -0.470712
H 0.996002 2.580056 -0.042219 0.771091 -1.438938 -0.289385
H 3.353631 1.262880 0.089765 0.443305 0.805865 0.061154
H 3.411924 -0.990749 0.220196 1.454768 -1.325599 0.184941
H 1.119983 -2.420617 0.198454 0.967614 -0.488153 0.024624
18
Properties=species:S:1:pos:R:3:forces:R:3 energy=-10489.685009976840
C -1.233600 -1.451547 -0.021816 1.279389 1.550587 0.706451
C -2.420604 -0.730915 0.139527 0.395262 -3.618800 -0.801998
C -2.449653 0.642097 0.072698 -2.466359 2.324721 -0.436090
C -1.324775 1.415169 -0.026143 1.751815 -1.919714 -0.226349
C -0.056436 0.683129 -0.153100 1.147420 2.484039 0.182973
C 1.186548 1.490805 -0.116688 0.033759 -1.155190 0.825225
C 2.399056 0.799425 0.038702 0.619663 -0.578318 1.064701
C 2.520921 -0.644180 0.067623 -4.568982 0.640172 -0.316354
C 1.340801 -1.435332 0.017689 -0.152106 1.949334 -0.782292
C 0.038972 -0.757673 -0.135408 -0.273539 -0.630890 0.571457
H -1.217823 -2.511593 0.176086 -0.076170 -0.522517 -0.266414
H -3.241053 -1.499727 0.180721 -0.138889 1.578807 0.191978
H -3.427068 1.215610 -0.021220 0.824390 -0.880642 0.570498
H -1.373961 2.501135 0.059729 0.207093 -0.056839 -0.285006
H 1.167642 2.610739 0.059011 -0.155965 -1.274529 -0.392077
H 3.313375 1.244585 0.501082 -0.580796 0.502880 -0.974933
H 3.370393 -1.161185 0.344051 2.294471 -0.668898 0.358798
H 1.393951 -2.530369 0.094342 -0.137357 0.272776 0.005009
18
Properties=species:S:1:pos:R:3:forces:R:3 energy=-10489.426999504420
C -1.333257 -1.458849 -0.001238 1.184440 0.527834 -0.392627
C -2.537479 -0.735369 -0.006232 1.777475 -0.753223 -0.217577
C -2.406984 0.635058 -0.118233 0.478707 2.015973 -0.088455
C -1.217105 1.341858 -0.274601 0.072884 -1.320819 0.052421
C -0.004502 0.615930 -0.239024 -0.797775 0.325010 1.571927
C 1.170972 1.356172 -0.008831 2.747317 1.231500 -1.098051
C 2.475007 0.864222 0.217143 -0.546240 -0.100910 0.672801
C 2.512562 -0.612430 0.279355 1.478618 3.298723 0.059200
C 1.366367 -1.275669 0.136594 -3.707199 -2.414770 -0.383748
C -0.048516 -0.775177 -0.001412 1.804865 0.032749 -0.507205
H -1.249261 -2.510891 -0.178439 -0.405155 -0.970224 0.481129
H -3.549527 -1.127874 0.040360 0.138970 -0.539719 -0.007899
H -3.284262 1.216635 -0.044249 -1.277399 0.769719 -0.009825
H -1.056741 2.408898 -0.285603 -0.790512 0.533142 -0.148010
H 1.102276 2.422832 -0.269542 -0.100560 0.009383 0.497147
H 3.382582 1.597654 0.452637 -1.909474 -1.739486 -0.680220
H 3.463819 -1.135607 0.399900 -0.112785 -0.048687 -0.030456
H 1.464499 -2.344328 0.081902 -0.037373 -0.854831 0.230106
18
Properties=species:S:1:pos:R:3:forces:R:3 energy=-10489.541772289094
C -1.190998 -1.558853 0.159091 0.204033 0.996400 -0.869482
C -2.436826 -0.939557 -0.046363 2.220162 1.089121 0.000689
C -2.497655 0.513883 -0.215946 1.364159 0.476926 1.074821
C -1.347407 1.368368 -0.093689 0.090321 -4.470733 -0.302745
C -0.047453 0.636415 -0.116910 -0.965775 2.047993 0.340954
C 1.120277 1.468434 -0.171710 0.088666 -1.073061 0.451527
C 2.393969 1.009888 0.015231 1.371549 -1.895994 1.470478
C 2.549828 -0.426454 0.173452 -1.845255 0.226574 -0.044066
C 1.379559 -1.283911 0.201236 2.615438 -0.067732 -1.392388
C 0.047220 -0.802559 0.049607 -0.370356 0.753889 0.308882
H -1.182725 -2.645622 0.276377 0.241041 0.083525 0.182105
H -3.240609 -1.652467 0.026921 -0.968763 0.388264 -0.232346
H -3.420476 1.067079 -0.255749 -0.813951 -0.224994 0.010213
H -1.399379 2.408546 0.211395 -0.065495 0.250957 -0.618902
H 1.093206 2.512773 -0.282316 -0.913228 1.598627 -0.155942
H 3.270153 1.675482 0.320990 -1.096171 -0.639199 -1.032851
H 3.565143 -0.843428 0.251022 -0.414841 -0.108422 0.032224
H 1.666136 -2.351427 0.000114 -0.743341 0.573346 0.774415
18
Properties=species:S:1:pos:R:3:forces:R:3 energy=-10489.833489690953
C -1.181204 -1.435367 0.213890 0.508409 -0.230384 -1.387138
C -2.411375 -0.918046 -0.193437 0.463712 -1.076821 1.298729
C -2.486422 0.482541 -0.192276 0.048920 0.511824 -0.932657
C -1.334689 1.263522 -0.181025 0.565672 1.225150 -0.738780
C -0.051373 0.683630 -0.104376 1.044651 1.074471 0.358736
C 1.184319 1.498142 -0.146952 -2.448220 -1.167420 -0.156865
C 2.393378 0.946218 0.026803 2.706477 -1.569867 0.996594
C 2.488991 -0.531393 0.129862 -0.145507 1.119371 0.451569
C 1.347007 -1.285362 0.320733 0.021334 -1.049801 -0.709791
C 0.011825 -0.689472 0.170323 1.446818 -0.481941 0.676207
H -0.927211 -2.471454 0.216497 -0.606025 -1.220120 0.302901
H -3.243550 -1.653832 -0.370104 0.470301 1.088971 0.226463
H -3.420499 0.965521 -0.397711 -0.685397 0.339674 -0.024482
H -1.287881 2.376474 -0.399690 -0.743810 -1.122771 0.450765
H 0.992150 2.508845 -0.387606 0.177779 1.480758 0.121289
H 3.367751 1.519363 0.300517 -1.651596 -0.642295 -1.097371
H 3.497568 -0.998433 0.084856 -0.657624 0.241314 0.276689
H 1.492964 -2.418236 0.434944 -0.516849 1.484468 -0.110934
18
Properties=species:S:1:pos:R:3:forces:R:3 energy=-10489.855202120227
C -1.225966 -1.309909 0.484778 -1.081311 -1.307899 -0.379139
C -2.415394 -0.736239 0.062300 0.787920 0.511816 -0.346039
C -2.492937 0.555920 -0.453010 1.959404 1.018402 0.169630
C -1.289702 1.247321 -0.598174 -0.040156 -0.380935 0.001955
C -0.015755 0.716719 -0.289775 1.069921 -2.199542 0.348893
C 1.285326 1.264973 -0.573250 0.401206 1.900994 1.317459
C 2.522967 0.716312 -0.156539 -2.979515 -2.466159 0.520711