24
Properties=species:S:1:pos:R:3:forces:R:3 energy=-15559.615614584678
N 0.390716 -0.173780 -0.694927 0.058844 -0.005333 -0.711608
N -0.316688 0.452499 0.144367 -0.677719 0.385654 -0.632626
C -1.782819 0.478826 -0.069301 0.765363 -2.173300 -0.595701
C -2.543762 0.958609 0.950271 0.492650 1.602944 1.781288
C -3.873116 0.706909 1.148172 -2.506011 0.020257 0.235520
C -4.570697 -0.147552 0.256926 -0.969608 -0.885557 1.871370
C -3.856674 -0.653350 -0.854367 -1.806075 0.515672 1.380421
C -2.523009 -0.319286 -0.955091 1.733652 -1.453109 -2.777344
C 1.852146 -0.164912 -0.390222 -3.412300 -0.165982 -0.505573
C 2.784314 -0.726493 -1.182582 1.959578 -1.892799 -3.641008
C 4.161687 -0.757113 -0.857361 0.292683 0.675110 0.766425
C 4.575567 -0.173565 0.413964 -4.019384 -1.100714 -2.106539
C 3.531805 0.276460 1.235280 -0.428407 0.495391 0.719912
C 2.211453 0.305562 0.797950 0.973739 1.365798 2.417768
H -2.049223 1.508306 1.722633 0.531196 0.603740 0.595418
H -4.438016 1.202005 2.002852 0.834475 -0.770610 -0.844279
H -5.576557 -0.657562 0.667481 1.875834 1.437082 -1.399489
H -4.503662 -1.289293 -1.476935 1.044218 -0.105830 -0.425860
H -1.959649 -0.836110 -1.772648 -0.211804 0.472907 0.463898
H 2.529841 -1.184120 -2.195550 -0.034087 0.553248 1.237757
H 4.847528 -1.215629 -1.628239 -0.436242 0.552553 1.071776
H 5.498291 -0.204874 0.835079 3.153573 -0.165020 0.731796
H 3.630103 0.615465 2.283036 0.718873 -0.041701 -0.459743
H 1.387107 0.761366 1.331257 0.066959 0.079597 0.826419
24
Properties=species:S:1:pos:R:3:forces:R:3 energy=-15559.846526740961
N 0.422300 0.643482 0.132929 1.328772 1.490673 0.427715
N -0.425476 -0.161984 -0.284003 1.653938 -1.118834 -1.375788
C -1.750145 0.050912 -0.069025 -1.630193 -0.383949 -3.054043
C -2.284963 0.536006 1.070998 -1.035224 -0.503149 0.574993
C -3.625573 0.341190 1.310787 -1.614478 1.048905 1.890899
C -4.495956 -0.017601 0.291204 -1.601337 -0.149350 2.191059
C -4.007751 -0.330863 -0.958150 -1.485383 0.233091 -0.940639
C -2.656420 -0.282893 -1.138973 1.080048 -0.390965 -0.750109
C 1.837716 0.279255 -0.076352 -2.586920 -0.204622 -0.216928
C 2.188777 -0.922495 -0.659955 1.142081 0.408894 1.170391
C 3.492724 -1.380486 -0.544956 -0.867695 -2.384337 -1.481184
C 4.422642 -0.602401 0.084998 2.809737 -0.478297 0.836273
C 4.119349 0.661867 0.483598 -0.978047 2.234364 -0.073957
C 2.786189 1.150739 0.359627 2.187578 1.516013 0.537496
H -1.621091 1.048597 1.666955 1.453674 0.826863 2.176730
H -4.140732 0.551856 2.325719 1.175220 -0.035945 -1.437097
H -5.544745 0.004094 0.697452 0.538625 -0.429828 -1.279258
H -4.689722 -0.541627 -1.821453 0.554501 0.159698 0.686399
H -2.379781 -0.411028 -2.197838 0.815380 -0.289851 0.544420
H 1.371525 -1.462557 -1.002834 -1.316881 -1.519424 -0.979186
H 3.695215 -2.398587 -0.992842 0.171894 1.014322 0.608179
H 5.492970 -0.857973 0.344082 -1.091159 -0.492547 -0.753262
H 4.968849 1.303396 0.769269 -0.564006 0.032992 0.208087
H 2.574806 2.230619 0.478610 -0.140123 -0.584713 0.488808
24
Properties=species:S:1:pos:R:3:forces:R:3 energy=-15559.944511171216
N 0.393300 -0.276065 -0.470334 -0.339546 -0.775632 0.104908
N -0.339566 0.318711 0.393166 -0.017295 -0.354586 0.020647
C -1.765181 0.166609 0.220766 -0.411526 1.004230 -0.842132
C -2.646814 0.959768 1.051114 2.779793 1.361088 -0.185275
C -4.007643 0.835952 0.932291 -0.016703 0.455120 1.415280
C -4.548824 0.011859 -0.029433 -5.601060 0.671904 1.573703
C -3.806605 -0.600907 -0.961191 1.671008 -0.573503 -2.406748
C -2.407672 -0.504869 -0.846175 0.273268 -1.848843 -0.799237
C 1.812979 -0.276624 -0.221553 -0.636556 2.406966 0.720782
C 2.644297 -1.058987 -1.018173 0.382300 0.703658 -0.131198
C 4.047825 -0.962486 -0.800591 -0.308634 -0.155613 -0.497601
C 4.573150 -0.141779 0.216631 0.796735 -0.625365 0.527007
C 3.708278 0.773773 0.899813 1.165708 -1.722209 -0.499074
C 2.367554 0.723334 0.660495 -0.864185 -1.492167 -0.776752
H -2.176223 1.880609 1.571583 -0.643335 -1.808388 -0.169005
H -4.642111 1.361260 1.670765 0.125911 -0.106015 -0.560397
H -5.756562 -0.036394 0.059473 2.663255 -0.146705 -0.739077
H -4.161691 -1.023455 -1.943980 -0.142019 0.065869 1.302798
H -1.944844 -1.172865 -1.629613 0.542293 1.070573 0.993219
H 2.128033 -1.561547 -1.847196 0.518164 -0.347432 0.175847
H 4.746173 -1.474266 -1.492094 -0.362143 -0.089278 0.540329
H 5.660383 -0.380620 0.554299 -1.672719 1.011604 -0.687561
H 4.073900 1.358530 1.708699 0.523215 0.799600 0.564804
H 1.667709 1.342144 1.181627 -0.425929 0.495124 0.354735
24
Properties=species:S:1:pos:R:3:forces:R:3 energy=-15560.041641417296
N 0.297987 0.112362 0.218346 3.152815 1.050965 1.668054
N -0.402238 -0.420781 -0.638082 -1.275610 -1.106829 -1.560422
C -1.782380 -0.213638 -0.288683 1.492957 1.169489 0.588689
C -1.971869 0.776883 0.711178 -5.242323 -0.801300 0.943784
C -3.389041 1.047019 1.110006 1.538017 0.461429 -2.137788
C -4.490263 0.527449 0.344399 3.539227 -0.870083 0.702419
C -4.082047 -0.501792 -0.544417 -2.920999 0.065859 -1.758096
C -2.810199 -0.851058 -0.977190 -0.204575 0.825632 1.325655
C 1.719084 0.066075 0.062734 0.440522 0.254980 0.134284
C 2.323803 -0.564763 -1.048092 -1.239218 -0.413330 0.174246
C 3.666777 -0.784393 -1.097684 2.986635 -0.031822 1.200288
C 4.481618 -0.266827 -0.008826 0.393414 -0.455840 -0.576371
C 3.920443 0.410929 1.082380 -1.617800 0.074206 -1.743716
C 2.522824 0.643015 1.089933 -0.718092 -0.550171 -0.119419
H -1.180784 1.191117 1.319107 0.158487 0.151714 -0.300487
H -3.564971 1.915908 1.739323 0.006959 -0.057262 0.504208
H -5.500660 0.892895 0.459667 -0.296225 -0.203792 0.054562
H -4.898618 -0.935586 -1.167925 0.281214 0.061114 0.451218
H -2.674369 -1.543935 -1.797941 0.255266 -0.177948 -0.019503
H 1.594578 -0.958964 -1.750320 0.140163 -0.182871 -0.436018
H 4.278950 -1.409291 -1.815933 -1.224508 0.746790 0.240485
H 5.601573 -0.411016 -0.049787 -1.140581 0.065627 0.045715
H 4.505574 0.894230 1.811109 0.974554 0.373934 1.057614
H 1.991576 1.207990 1.893645 0.519701 -0.450493 -0.439399
24
Properties=species:S:1:pos:R:3:forces:R:3 energy=-15559.766457411191
N 0.364908 0.266086 0.380042 0.383944 0.784823 0.836245
N -0.445062 -0.177971 -0.467659 2.781347 -1.319850 -1.154539
C -1.733046 0.055606 -0.194269 -1.857066 -0.044583 0.139847
C -2.205306 0.845348 0.825582 0.537552 1.714042 3.302001
C -3.541456 0.974882 0.963088 -1.912492 0.255840 1.157422
C -4.494801 0.294278 0.180369 -0.049737 0.639559 1.035504
C -4.095386 -0.566532 -0.780082 2.795069 -1.937833 -2.144810
C -2.635093 -0.670915 -0.958316 -1.156245 -0.577437 -0.886778
C 1.730611 0.016729 0.186600 0.389502 0.598051 0.039856
C 2.280412 -1.048569 -0.493896 -2.184931 -2.344268 -3.624708
C 3.610152 -1.238177 -0.800683 2.760635 -1.487763 0.343382
C 4.530388 -0.405015 -0.140170 -1.112558 1.548802 0.600194
C 3.993991 0.715245 0.573856 0.175367 -1.001000 -0.570096
C 2.619988 0.963720 0.699464 1.385534 -1.485722 -0.515351
H -1.686372 1.279723 1.770211 0.159092 -0.688510 -2.214842
H -3.891335 1.484191 1.876861 -0.137346 0.076860 -0.463786
H -5.512955 0.343951 0.495730 -0.962996 0.216575 -0.022608
H -4.768810 -1.227437 -1.397365 0.580479 0.754468 0.702638
H -2.004586 -1.337382 -1.604915 -1.390153 0.198359 -0.119572
H 1.555540 -1.637097 -1.183763 0.752168 0.540137 1.561233
H 4.107487 -2.140287 -1.382782 -1.623694 1.664647 0.838781
H 5.618402 -0.444654 -0.176988 -0.001909 -0.448978 -0.241930
H 4.732522 1.345880 1.022375 0.271689 0.812407 0.346226
H 2.243582 1.864089 1.065275 -0.583251 1.531373 1.055691
24
Properties=species:S:1:pos:R:3:forces:R:3 energy=-15560.058276207719
N 0.334709 -0.409474 -0.348229 0.459085 1.678460 0.634291
N -0.375199 0.327608 0.463828 0.035227 -0.685161 -2.103616
C -1.746079 0.287615 0.078384 -0.162043 0.083966 1.116794
C -2.594594 0.822689 1.083793 -0.609215 -1.032142 -1.721865
C -3.976693 0.674983 1.057527 -1.508155 0.189868 0.960388
C -4.552570 -0.068461 0.004067 -0.717049 0.871871 -0.471242
C -3.709154 -0.407948 -1.087106 -1.535268 -0.796819 1.044851
C -2.317708 -0.249050 -1.079927 -2.304748 0.255235 1.575994
C 1.730062 -0.167979 -0.210668 1.724375 -2.167262 -0.672148
C 2.600381 -1.069746 -0.954905 -0.140260 1.997568 2.271984
C 3.993689 -1.115183 -0.652396 -1.932861 1.004324 0.195492
C 4.577783 -0.160300 0.162346 -2.618063 1.322996 0.522138
C 3.709758 0.853625 0.753312 2.796854 -1.757109 -0.273359
C 2.375458 0.728726 0.675787 -2.426499 0.416558 -0.954318
H -2.039492 1.308049 1.806890 0.736429 1.133979 2.044312
H -4.666959 1.094025 1.881503 1.233632 -0.567947 -1.102642
H -5.703567 -0.237088 -0.106241 2.092851 0.232043 0.425020
H -4.308427 -1.015865 -1.779698 0.898544 0.281635 -0.767395
H -1.857468 -0.618904 -1.915151 1.942031 -0.824532 -1.911123
H 2.104023 -1.717776 -1.620256 -0.355896 -1.167037 -0.866171
H 4.488643 -1.988988 -0.923259 1.319966 -1.387845 -0.958451
H 5.575852 -0.156399 0.504149 1.372642 -0.246345 0.014506
H 4.209404 1.539076 1.419824 -0.095119 0.551940 0.241727
H 1.684256 1.394671 1.149431 -0.206458 0.611756 0.754831
24
Properties=species:S:1:pos:R:3:forces:R:3 energy=-15559.721857445831
N 0.377370 0.783334 -0.166774 -0.740033 -1.737581 0.243262
N -0.320612 -0.291468 -0.030122 0.134109 0.149468 -1.174219
C -1.742113 -0.152307 -0.037669 0.992674 1.447393 2.104143
C -2.251194 0.906177 0.737928 -0.368495 1.144142 -0.815466
C -3.621492 1.137174 0.758555 -0.852311 -0.216106 0.694575
C -4.473600 0.219030 0.114765 -1.101719 0.185250 0.494933
C -3.934019 -0.909507 -0.504179 -1.708691 1.178268 0.792846
C -2.612706 -1.131820 -0.503632 1.479926 2.010120 0.428697
C 1.756607 0.359690 -0.124994 0.541613 0.586898 -0.347710
C 2.327308 -0.425738 -1.154741 -1.207103 -1.163264 -0.285288
C 3.589325 -0.965973 -1.090629 2.743902 -0.948043 1.338809
C 4.452609 -0.571078 0.019199 0.274422 -0.214366 1.335468
C 3.914044 0.293334 1.001133 -1.446086 -0.411984 -0.397669
C 2.547383 0.759070 0.941260 1.906032 0.910104 0.140455
H -1.616394 1.713476 1.128081 0.236899 -0.579452 0.088260
H -4.016575 1.963914 1.393083 0.111289 -0.421463 -0.647603
H -5.594351 0.288006 0.124522 0.978388 0.323801 0.103010
H -4.597096 -1.587316 -0.962974 -0.814528 -0.971939 -0.676220
H -2.216655 -1.803705 -1.140243 1.438758 -3.014583 -1.859709
H 1.709695 -0.886649 -1.942725 -0.261709 0.604136 0.251798
H 3.898359 -1.867006 -1.736068 -0.393274 1.659935 0.564009
H 5.498728 -0.943342 0.418342 -1.861078 0.152501 -1.787706
H 4.444694 0.439889 1.947700 0.211088 0.331163 -0.301049
H 2.271012 1.590496 1.636090 -0.294074 -1.004399 -0.287624
24
Properties=species:S:1:pos:R:3:forces:R:3 energy=-15560.546328507948
N 0.406743 0.587026 0.159471 1.564141 1.026063 1.063385
N -0.380490 -0.217881 -0.352494 0.535678 -0.839462 -1.089867
C -1.713640 0.088256 -0.240988 -1.042110 -0.359064 0.349745
C -2.296392 0.895788 0.732814 0.200313 -0.450273 0.576547
C -3.679384 0.821893 0.964639 0.994283 1.546401 0.296751
C -4.508094 0.012289 0.194587 0.226579 -0.003116 0.372594
C -3.888937 -0.784391 -0.752958 -0.224518 -0.226862 0.064279
C -2.539816 -0.746559 -0.978698 0.983132 -0.630835 -2.711521
C 1.788698 0.172501 0.081699 -2.086148 0.376604 -0.675553
C 2.214198 -0.698605 -0.915520 -0.200034 -0.520671 -0.272986
C 3.570009 -0.947400 -0.919274 0.439919 -0.583541 -0.700906
C 4.446039 -0.400534 0.025983 -0.987929 -0.558850 -0.207202
C 3.948060 0.466809 1.006083 2.605795 -0.244103 0.429472
C 2.618815 0.795464 0.996298 -0.536649 0.496527 0.205442
H -1.598086 1.398858 1.418148 -0.441164 0.204546 -0.174097
H -3.936993 1.550378 1.734256 -0.984485 -0.321491 0.128888
H -5.581081 -0.106523 0.297455 -0.189601 0.281939 0.429193
H -4.460146 -1.551316 -1.205170 -0.785649 -0.632538 -0.989531
H -2.063227 -1.243350 -1.916291 -0.782141 0.245510 1.843143
H 1.514662 -1.216889 -1.631538 0.591343 0.773907 0.792796
H 3.938684 -1.614261 -1.698052 0.312326 -0.114175 0.022171
H 5.442971 -0.806852 0.027846 0.659420 0.305951 0.127438
H 4.753030 0.800068 1.714616 -1.178340 0.202167 -0.219607
H 2.107281 1.526749 1.621847 0.325841 0.025361 0.339427
24
Properties=species:S:1:pos:R:3:forces:R:3 energy=-15560.130017242516
N 0.371748 0.075885 0.303876 1.238050 0.212061 -0.906195
N -0.398445 0.103072 -0.691068 -1.133850 -0.324591 -0.020524
C -1.793109 0.185912 -0.300442 -1.561534 -1.348625 -0.393793
C -2.226656 0.742531 0.910031 -0.106810 0.680836 1.245238
C -3.611937 0.779984 1.289366 0.747950 -2.043147 -3.093862
C -4.569796 0.097612 0.427551 2.235022 0.112080 0.168573
C -4.131381 -0.595461 -0.761812 -0.720342 0.956907 0.424585
C -2.795952 -0.511007 -1.130683 1.372278 1.705295 2.182350
C 1.794255 -0.015786 -0.048678 -0.036828 2.110997 1.635846
C 2.411838 -0.897792 -0.920612 0.073489 -1.301749 0.600034
C 3.776638 -1.192886 -0.686560 -0.549321 -0.723783 -0.788086
C 4.540249 -0.343408 0.109180 -0.520016 -1.383833 -1.281297
C 3.987464 0.721932 0.761266 0.140245 1.059103 -0.427175
C 2.627716 0.883448 0.721337 -1.643133 -0.288252 0.453574
H -1.440634 1.120688 1.646310 -0.975583 -0.264402 -1.049664
H -3.848867 1.208296 2.227451 -0.618159 0.466959 0.918717
H -5.588383 0.002924 0.734841 -0.823296 0.142976 0.184409
H -4.868772 -1.092042 -1.465661 0.768327 0.405876 1.019605
H -2.400093 -1.015701 -1.953575 0.472287 -0.821785 -1.668211
H 1.805698 -1.509236 -1.585410 -0.085424 -0.155123 -0.017580
H 4.240101 -2.142409 -1.106005 -0.494068 1.326442 0.116006
H 5.553295 -0.560797 -0.005661 2.091170 0.010828 0.633709
H 4.602331 1.528120 1.130967 0.311411 0.089903 0.596270
H 2.205160 1.700184 1.349478 -0.181864 -0.624973 -0.532531
24
Properties=species:S:1:pos:R:3:forces:R:3 energy=-15560.358500802582
N 0.404288 0.398478 0.262507 -0.387545 0.664636 0.583982
N -0.409204 -0.169019 -0.519000 0.433214 -0.420357 -1.011866
C -1.756015 0.127889 -0.336314 -1.594161 0.932244 1.665543
C -2.259656 1.010146 0.718186 -0.573564 0.262760 -0.287633
C -3.636975 0.891452 1.034318 0.296978 0.796130 1.407169
C -4.478702 -0.046242 0.438311 1.028393 -0.086758 -1.020072
C -4.054131 -0.768369 -0.668352 1.550398 0.160104 -0.474168
C -2.674869 -0.663184 -1.086127 -1.670556 1.858685 3.298925
C 1.759510 0.090019 0.102653 0.834117 -0.074200 0.370362
C 2.262523 -0.914046 -0.746475 -0.034477 -0.296234 -0.382328
C 3.652411 -1.138275 -0.797048 0.059801 -1.806135 -1.719336
C 4.505862 -0.307074 -0.137284 1.215845 1.655220 1.451110
C 4.033965 0.672371 0.743277 -2.257163 -0.588307 -0.247253
C 2.649297 0.837046 0.931880 -0.131204 -0.310835 -0.975563
H -1.620406 1.772615 1.276112 -0.628756 -1.235044 -0.833067
H -4.158565 1.456394 1.872555 1.149413 -0.281988 -0.799542
H -5.425990 -0.282361 0.852746 -1.133046 0.142092 0.366197
H -4.784737 -1.427793 -1.129639 0.270317 -0.315760 -0.305906
H -2.144219 -1.367616 -1.589998 0.938413 -2.242481 -2.440342
H 1.502500 -1.427568 -1.368713 0.604020 -0.078869 0.317266
H 4.212845 -1.960723 -1.375780 -1.478449 0.967650 0.404616
H 5.597854 -0.298769 -0.227862 -0.121521 -0.640075 -0.255635
H 4.679652 1.253478 1.322696 1.283652 1.004036 0.816751
H 2.171023 1.575391 1.584864 0.345883 -0.066513 0.070791
24
Properties=species:S:1:pos:R:3:forces:R:3 energy=-15560.061497359335
N 0.384147 0.368388 0.455754 1.285030 -0.004098 -0.278289
N -0.413336 -0.312320 -0.253361 0.373477 0.544074 0.069786
C -1.753990 -0.023297 0.015566 -0.690167 -1.799425 -1.704137
C -2.263256 0.432919 1.215799 -0.734163 0.754841 -2.245569
C -3.643820 0.608074 1.157521 -1.194684 0.486369 0.510597
C -4.501386 0.295948 0.025224 -0.233777 -0.261208 0.967589
C -3.938572 -0.156796 -1.193913 1.311394 0.562813 3.606902
C -2.567795 -0.377550 -1.100597 -0.060095 0.804069 0.657455
C 1.768586 0.111201 0.121504 -0.155291 0.291133 0.683655
C 2.136100 -0.876369 -0.849934 -0.285812 -0.368773 0.839209
C 3.492454 -1.180958 -0.897177 -0.272559 2.313433 0.671436
C 4.453008 -0.399748 -0.225616 0.094128 -0.352065 0.403999
C 4.098000 0.624651 0.625308 -0.650970 0.873883 1.726016
C 2.733041 0.877497 0.899192 -0.257822 -2.359873 -2.876557
H -1.505333 0.965639 1.755923 -0.019897 0.003048 1.517930
H -4.031442 1.099239 2.061607 -0.653750 -0.259424 -0.292214
H -5.631741 0.281279 0.133150 1.311381 0.481964 0.045329
H -4.539074 -0.370590 -2.012707 -0.964958 -0.449575 -1.707924
H -1.989362 -0.686652 -1.916700 0.715777 -0.761624 -1.497157
H 1.361544 -1.514441 -1.397336 0.977751 1.138483 0.759451
H 3.876305 -1.831913 -1.587286 0.736877 -2.217411 -1.721807
H 5.514620 -0.639068 -0.201945 0.084937 -0.274094 -0.592298
H 4.885081 1.124223 1.236862 -0.505536 -0.133550 -0.524189
H 2.317641 1.560865 1.584425 -0.211272 0.987011 0.980787
24
Properties=species:S:1:pos:R:3:forces:R:3 energy=-15560.097224998099
N 0.386869 0.153701 0.663958 0.569626 -0.320222 -0.859658
N -0.306850 -0.466830 -0.214089 -0.475683 0.550039 0.318913
C -1.661024 -0.150799 -0.167147 -1.948544 0.082674 0.910862
C -2.169025 0.820794 0.730562 -1.627883 0.281394 1.738967
C -3.593845 1.001835 0.940383 1.712605 0.679010 -0.446694
C -4.433290 0.391191 0.023552 -1.255410 -0.692678 0.272990
C -4.003956 -0.557884 -0.858318 3.223137 -0.771224 -0.264939
C -2.601520 -0.891880 -0.917432 -0.478396 -0.168925 -1.546583
C 1.779081 0.022574 0.337620 -1.673336 0.074471 0.507575
C 2.111520 -0.700019 -0.798082 -1.321491 0.287847 -1.846547
C 3.393549 -0.733079 -1.218134 2.427349 -0.806109 0.919498
C 4.374322 -0.202760 -0.333851 -0.906962 0.258929 -1.189285
C 4.034453 0.617829 0.705525 1.454285 0.724546 1.817485
C 2.692700 0.731466 1.081937 1.165925 -0.440764 0.258580
H -1.440118 1.263471 1.440531 -0.464918 0.004820 -0.511715
H -4.067087 1.653428 1.708315 0.801224 -0.238442 -0.335949
H -5.521577 0.362163 -0.025261 -0.264110 1.083560 0.843215
H -4.782780 -1.041624 -1.400552 -0.152052 -0.748128 -0.867061
H -2.191958 -1.635873 -1.663991 -0.550022 0.541693 0.866831
H 1.248943 -0.988210 -1.443433 0.813163 -0.274622 0.542868
H 3.799077 -1.317885 -2.047715 -0.495245 0.082710 -0.258695
H 5.391343 -0.359636 -0.530578 1.633456 -0.217702 -0.498125
H 4.899903 1.083754 1.321864 -1.578180 -0.627116 -0.831374
H 2.470265 1.169846 2.030578 -0.608537 0.654239 0.458840
24
Properties=species:S:1:pos:R:3:forces:R:3 energy=-15559.970774265594
N 0.384206 -0.418020 0.463776 -0.271764 0.321402 -1.163737
N -0.372595 0.307051 -0.262981 0.715809 -0.324714 0.049500
C -1.726395 0.151979 -0.057971 -0.766276 2.564946 -0.255460
C -2.436733 -1.002192 -0.110624 -1.069231 -1.125257 0.628965
C -3.831150 -1.045150 0.060727 1.831482 -1.968127 -1.153546
C -4.557871 0.056415 0.056073 -0.947521 3.627727 0.716195
C -3.854916 1.276130 0.063115 1.329653 1.914259 0.494584
C -2.444012 1.392484 0.013446 0.370336 -0.096596 0.081299
C 1.716518 -0.224991 0.099878 3.079295 -0.076783 0.526549
C 2.600225 -0.408477 1.247368 -0.516718 0.183507 -1.580195
C 4.002742 -0.221851 1.143128 -1.300436 -0.826185 -0.765434
C 4.530801 -0.078885 -0.197714 -1.829112 0.752595 1.958358
C 3.694230 0.149649 -1.304474 -0.360488 -0.449079 0.445615
C 2.299391 0.093798 -1.220018 -0.766290 -1.155772 2.619220
H -1.943642 -1.915236 -0.289733 0.847854 -1.236442 -0.089984
H -4.353755 -1.953289 -0.062669 -0.341369 -1.510793 0.160439
H -5.639060 0.086175 0.160010 -0.146596 -0.151687 -0.135360
H -4.337229 2.235350 0.228530 -0.627122 0.047188 -0.220473
H -1.754553 2.354109 0.061705 -1.915894 -1.683707 -0.139317
H 2.071924 -0.782731 2.147051 0.515771 0.492629 -0.169095
H 4.502689 -0.362794 2.128565 0.533218 0.140320 -1.095054
H 5.562420 -0.053014 -0.372863 1.721742 0.035433 -0.072819
H 4.179612 0.299296 -2.259971 0.024563 -0.019005 -0.370431
H 1.635697 -0.021044 -2.063065 -0.110905 0.544140 -0.469816
24
Properties=species:S:1:pos:R:3:forces:R:3 energy=-15559.812515296111
N 0.267384 0.236709 0.452955 3.103484 -0.103965 0.746917
N -0.397540 -0.380115 -0.398180 -1.262960 -0.682942 -0.695146
C -1.788707 -0.109902 -0.250766 0.961706 1.698001 1.130293
C -2.158864 1.005242 0.560162 -1.699169 0.207139 -0.343408
C -3.509567 1.299032 0.809130 0.109849 -3.226952 -2.018041
C -4.438437 0.362138 0.209539 -0.659466 0.443950 -0.468036
C -4.070601 -0.687954 -0.686977 -1.388846 1.417474 1.681184
C -2.736311 -0.892707 -0.859709 0.349325 -1.788038 -0.717818
C 1.722957 -0.030150 0.286167 0.465791 0.904703 0.430416
C 2.228444 -0.849896 -0.729056 0.907563 1.335082 0.024057
C 3.615595 -0.879892 -1.042193 -1.649579 -4.096511 -0.496742
C 4.536924 -0.230668 -0.280995 1.638735 2.290328 0.626001
C 4.077458 0.523419 0.789391 -3.174952 -0.056888 0.382854
C 2.685478 0.635598 1.127516 0.295406 -1.984407 -2.755848
H -1.464571 1.712298 0.967337 0.853467 -0.004995 0.067922
H -3.789117 2.132033 1.405745 -0.491166 0.666939 0.535468
H -5.523606 0.445659 0.330276 0.064007 0.409538 0.351023
H -4.824170 -1.382169 -1.122879 0.432053 0.608409 0.339312
H -2.529723 -1.842170 -1.343035 0.911360 0.059088 -0.454664
H 1.503790 -1.223080 -1.413262 -0.488924 -0.996031 -0.507019
H 3.888738 -1.887803 -1.528554 0.043432 1.929439 -0.500175
H 5.588712 0.036012 -0.570637 -0.629115 -1.199379 0.115576
H 4.700330 1.053456 1.429135 1.610543 1.054564 0.986455
H 2.299675 1.229548 1.892933 -0.302542 1.115456 1.539418
24
Properties=species:S:1:pos:R:3:forces:R:3 energy=-15559.969857175696
N 0.452592 0.368193 0.351429 -0.498958 -0.400636 -0.939791
N -0.439663 -0.416884 -0.126360 1.251659 0.465461 -0.430710
C -1.797156 -0.022666 -0.040690 0.005038 0.740717 0.623221
C -2.362776 1.176049 0.446285 3.141417 1.815933 2.272631
C -3.691361 1.283423 0.647353 -3.828858 0.913512 -0.019321
C -4.557301 0.322088 0.072911 -0.759618 1.673252 0.396106
C -4.041435 -0.765233 -0.546636 -1.105935 -0.989503 -0.440853
C -2.687201 -0.966566 -0.496362 0.146105 0.079003 -0.244340
C 1.858364 0.021209 0.037020 -3.167851 0.866191 2.085239
C 2.336610 -0.492799 -1.135369 1.108729 -1.269809 -1.611245
C 3.715472 -0.780386 -1.168307 -0.271971 1.277610 -2.105947
C 4.561315 -0.302105 -0.190325 0.510102 -1.746806 0.180388
C 4.027830 0.202447 0.999040 0.602293 0.634042 1.725047
C 2.644743 0.377789 1.149431 0.944032 -0.332434 -0.491738
H -1.680700 1.964659 0.936544 -0.735518 -1.085990 -0.983278
H -4.356349 2.106453 1.117687 2.003798 -0.643158 -0.446704
H -5.633674 0.559295 0.038247 0.280173 -0.318705 0.171955
H -4.759261 -1.433846 -1.027813 0.394324 -0.377222 -0.033267
H -2.242320 -1.841341 -0.822527 0.775976 -2.040148 -0.942034
H 1.814575 -0.739958 -2.084001 -0.481722 0.301964 0.984641
H 4.209431 -1.056258 -2.146828 -0.719016 -0.229042 0.963246
H 5.563580 -0.711769 -0.405051 0.259184 1.040284 0.916865
H 4.682668 0.479712 1.870308 -0.385140 -0.281920 -0.843458
H 2.137762 0.715137 2.085092 0.531760 -0.092599 -0.786652
24
Properties=species:S:1:pos:R:3:forces:R:3 energy=-15560.500050813849
N 0.396540 0.191780 0.600932 -0.660834 0.071801 -0.686336
N -0.320891 -0.045952 -0.419290 -1.936495 -0.351683 0.778719
C -1.786959 -0.015177 -0.140016 1.965388 -0.200051 -0.670865
C -2.328704 0.055981 1.152001 -0.429508 0.631543 -1.264754
C -3.693704 0.276433 1.262000 -0.646957 -1.349226 -0.712073
C -4.505816 0.166827 0.116733 1.397784 0.735840 -1.486808
C -3.931354 0.081099 -1.207088 -0.540213 0.890913 0.218700
C -2.537594 -0.026719 -1.332198 -0.114232 -0.236431 0.610551
C 1.737508 0.035221 0.263312 2.170751 -0.548181 0.196626
C 2.234688 -1.126598 -0.381704 -1.610636 -0.832269 -1.225968
C 3.605348 -1.291709 -0.705166 0.356699 1.773070 0.130930
C 4.459895 -0.205842 -0.338291 0.323210 -0.901407 0.378310
C 3.973572 0.883344 0.427391 3.372386 -0.661159 -0.728343
C 2.670577 0.990562 0.703671 -2.250755 0.577051 0.942685
H -1.676030 0.028538 1.983644 0.738075 0.064968 0.973270
H -4.211019 0.329824 2.209057 0.079957 0.158703 0.492514
H -5.560436 0.294687 0.221281 -0.857077 0.067301 -0.003398
H -4.532815 0.361328 -2.123676 0.320372 -0.903502 0.985417
H -1.959833 -0.176786 -2.269619 -0.576978 0.390609 0.391594
H 1.362180 -1.797639 -0.737389 1.685991 0.513009 0.515988
H 4.105898 -2.084606 -1.298086 -0.895154 0.038333 0.421847
H 5.560966 -0.290398 -0.519192 -0.842748 0.080662 0.021679
H 4.739512 1.569078 0.859368 -0.688730 -0.143836 -0.436363
H 2.342241 1.843596 1.288083 -0.360293 0.133943 0.156079
24
Properties=species:S:1:pos:R:3:forces:R:3 energy=-15559.541279014747
N 0.434347 0.241131 0.181246 -1.425681 -0.035796 0.039585
N -0.402558 -0.469505 -0.509990 0.573022 0.306448 1.405950
C -1.771990 -0.246664 -0.113906 -1.028152 2.285079 1.045425
C -2.278264 0.663038 0.938685 2.537309 0.053449 0.324693
C -3.631335 0.950790 1.073169 0.558740 2.982590 2.961689
C -4.532893 0.613189 0.163957 -3.986671 -2.016374 -4.171445
C -4.146923 -0.341112 -0.894977 1.014506 1.602664 3.017038
C -2.813300 -0.764555 -0.918319 -0.363767 -1.240622 -0.563597
C 1.825043 0.020577 0.065693 -1.634246 -0.511673 0.085028
C 2.348785 -1.172353 -0.394059 -1.393158 0.414178 -0.892425
C 3.716054 -1.221420 -0.492118 0.759475 -2.592825 -2.212645
C 4.630662 -0.225004 -0.147587 -2.341977 0.478715 1.281172
C 4.049998 0.929588 0.492475 0.055502 -1.646411 -1.022297
C 2.621691 1.013743 0.585271 1.994606 1.474443 0.333743
H -1.595251 1.254295 1.661826 -0.652724 -1.316553 -1.289189
H -4.066727 1.714959 1.860105 1.440602 -1.455242 -1.052641
H -5.635808 1.038079 0.208953 2.143415 -0.991674 -0.096730
H -4.828473 -0.875793 -1.498935 -1.036714 -0.221703 -0.774471
H -2.664446 -1.676867 -1.523430 0.567390 0.588174 -0.193424
H 1.533185 -1.810545 -0.844119 1.379022 -0.144143 0.420280
H 4.033905 -2.106401 -1.105010 0.420467 0.475126 0.786841
H 5.678800 -0.466622 -0.240054 0.418423 0.479906 -0.045775
H 4.828704 1.613556 0.792836 -0.465451 0.964500 0.531778
H 2.065494 1.869529 0.987264 0.466063 0.067745 0.081418
24
Properties=species:S:1:pos:R:3:forces:R:3 energy=-15559.986227023926
N 0.389692 0.399079 0.683893 1.670342 0.717208 0.281115
N -0.346667 -0.257007 -0.064730 -1.820555 -1.443556 -1.167951
C -1.770772 -0.239414 0.109255 0.557346 1.269212 1.031125
C -2.486276 0.245984 1.237026 -0.995858 -0.280775 -0.339191
C -3.882995 0.501889 1.097463 1.418196 -0.000766 0.225330
C -4.560223 0.334464 -0.124591 0.379929 -0.122031 0.113796
C -3.809166 -0.207277 -1.233285 -0.049341 0.364048 1.497048
C -2.457927 -0.491205 -1.081866 0.768053 -0.355672 -0.143363
C 1.773202 0.236125 0.235594 0.401776 -2.486508 -0.841842
C 2.212424 -0.927380 -0.601213 -3.977274 2.043861 0.654657
C 3.479390 -1.072231 -1.017752 2.635140 -0.482836 -0.620488
C 4.527781 -0.258052 -0.506284 -1.721863 0.570278 1.748769
C 4.128359 0.695996 0.514778 -0.413889 -1.578615 -3.340756
C 2.784191 1.027541 0.725660 0.131203 0.930725 2.882590
H -2.057893 0.384736 2.236012 0.343201 0.079761 -0.383694
H -4.368480 0.934299 1.990637 -0.152357 -0.274498 -0.474378
H -5.621974 0.668673 -0.020028 0.614731 -0.537287 -1.091734
H -4.085275 -0.446343 -2.229171 -1.470386 0.112963 -0.833533
H -1.817522 -0.895475 -1.909092 -0.740261 0.401059 0.476860
H 1.345620 -1.499972 -1.009750 0.788528 0.045171 0.352280
H 3.796952 -1.883232 -1.712257 -0.497599 0.385548 0.329024
H 5.544846 -0.510566 -0.806371 0.139807 0.405089 0.274695
H 4.821572 1.315912 0.953412 1.929914 1.301042 1.124290
H 2.583209 1.787506 1.591378 0.061217 -1.063421 -1.754647
24
Properties=species:S:1:pos:R:3:forces:R:3 energy=-15560.105227850247
N 0.429543 0.109317 0.351043 -2.375835 0.013728 -0.378761
N -0.484161 -0.558252 -0.281726 4.057816 -0.945147 -1.184013
C -1.761319 -0.203078 -0.120181 -1.458781 1.946964 2.647343
C -2.143994 0.817156 0.834694 -1.044089 -0.148991 -1.169770
C -3.494029 1.132485 0.960648 0.672180 -0.010020 1.355659
C -4.458558 0.449539 0.223847 -0.051457 1.433392 -0.141838
C -4.040287 -0.308154 -0.828151 0.046254 -1.680619 0.228110
C -2.755689 -0.804772 -0.888959 -0.039547 2.664952 1.555678
C 1.786410 -0.038564 0.030395 -1.596630 -1.616467 0.260326
C 2.345895 -1.091407 -0.726513 0.700139 1.790086 0.979933
C 3.736628 -1.095081 -0.836857 -0.135384 -0.459828 -0.475445
C 4.511842 -0.115845 -0.206424 -1.058397 1.005400 0.454025
C 3.860910 0.858348 0.630845 2.297600 0.288850 1.067741
C 2.484147 0.851226 0.818918 1.423057 -0.203391 -0.638793
H -1.463669 1.463565 1.367054 0.642323 -0.299758 0.109132
H -3.712775 1.868269 1.746616 -0.442091 -0.106654 -0.266627
H -5.513557 0.627432 0.276349 -0.658787 0.431805 0.426143
H -4.782748 -0.715350 -1.459005 -0.864027 -0.581073 -0.935508
H -2.447002 -1.473897 -1.572808 0.934850 -2.531982 -2.579037
H 1.619762 -1.798808 -1.018238 -0.433749 -1.167911 -0.975894
H 4.247894 -1.863101 -1.422038 -0.053132 -0.085963 0.022573
H 5.591640 -0.107648 -0.381470 -0.110933 0.107624 0.275071
H 4.549123 1.514871 1.268885 -0.988986 -0.642978 -0.913505
H 1.812882 1.338913 1.515668 0.537607 0.797981 0.277458
24
Properties=species:S:1:pos:R:3:forces:R:3 energy=-15559.598428608817
N 0.389426 0.569225 0.433073 1.671681 -0.798211 0.893108
N -0.340572 -0.303195 -0.076374 -1.990352 -0.785219 -0.170325
C -1.787555 -0.052953 -0.022851 1.168788 2.107702 -0.332025
C -2.327105 1.268524 0.132737 -0.592334 -1.102625 1.582979
C -3.727177 1.365538 0.170493 1.175982 1.567385 1.187179
C -4.522474 0.282177 0.016576 -1.793904 -2.219460 -1.454907
C -3.996041 -1.005632 -0.201403 1.320918 1.317033 -0.693573
C -2.619084 -1.143334 -0.280018 1.820769 -0.587038 -0.213143
C 1.803522 0.078650 0.310843 -1.140810 1.437877 -2.118514
C 2.216133 -0.208279 -0.998469 -1.605699 -0.404915 -1.884143
C 3.497132 -0.599746 -1.316255 2.106174 -0.468030 0.790684
C 4.496397 -0.574052 -0.314782 -0.673980 1.247686 1.532321
C 4.141235 0.047272 0.900196 -0.940593 -0.410167 2.589086
C 2.778643 0.256701 1.246814 0.001555 0.292802 0.879267
H -1.806401 2.115740 0.600650 0.551109 -0.292071 -0.771140
H -4.195196 2.280907 0.558939 0.165376 0.157771 -0.624438
H -5.584157 0.411408 -0.232500 -0.038463 0.043914 0.689070
H -4.493544 -1.791877 -0.682557 -1.598050 -1.215692 -0.073015
H -2.036126 -2.050543 -0.633561 -1.047316 0.622373 0.575583
H 1.429869 -0.150643 -1.808535 0.801125 -0.152029 0.781531
H 3.964959 -0.920315 -2.248294 -1.072558 0.006612 -0.592372
H 5.500954 -0.972832 -0.394731 0.230943 0.122935 -0.557927
H 4.695551 0.283570 1.862100 0.651800 -0.699755 -1.591041
H 2.397808 0.495406 2.265649 0.827839 0.211121 -0.424247
24
Properties=species:S:1:pos:R:3:forces:R:3 energy=-15560.030162414989
N 0.431151 0.607886 0.436473 -0.440784 -0.505620 -0.472962
N -0.346282 -0.092997 -0.306781 -0.182724 0.010505 0.156059
C -1.788340 -0.017585 -0.145053 1.613533 2.567161 1.485630