24
Properties=species:S:1:pos:R:3:forces:R:3 energy=-15559.947029454746
N 0.388855 0.282116 0.176524 -1.016976 -0.256036 -0.300089
N -0.397174 -0.280710 -0.668461 -0.586564 0.970827 0.530717
C -1.801884 0.048315 -0.351401 -0.687719 -1.230828 -0.084397
C -2.216656 1.170120 0.377974 -0.708708 1.258126 0.246538
C -3.602053 1.275625 0.791124 0.839394 -0.035469 -0.588487
C -4.471751 0.227381 0.471679 0.658304 -0.867785 0.168989
C -4.105526 -0.979017 -0.162966 0.726105 0.473180 0.250375
C -2.804506 -0.948140 -0.668038 0.779999 -0.196020 0.177263
C 1.773706 0.088386 0.006533 0.106375 -0.839336 2.503223
C 2.426598 -0.017263 -1.170629 1.179969 -0.637685 -3.939817
C 3.831816 -0.302245 -1.211093 -2.054385 1.199561 1.318625
C 4.547516 -0.204426 -0.011256 2.188602 -0.810928 -2.334581
C 3.942571 -0.162626 1.199381 -2.443416 -0.380334 2.123393
C 2.503257 -0.144313 1.228258 0.516075 0.882558 -0.910726
H -1.480630 2.014121 0.474000 -0.696143 -0.795184 0.408875
H -4.075563 2.122554 1.363971 0.949778 -0.514001 -0.701481
H -5.477944 0.297310 0.727237 -1.933858 0.390426 0.871448
H -4.720894 -1.952282 -0.166132 0.625658 1.783650 -0.408819
H -2.585106 -1.771350 -1.311211 0.966313 -0.746718 -0.357713
H 1.821644 0.048428 -2.153349 0.918293 -0.131848 1.467506
H 4.318391 -0.542629 -2.118483 0.534563 0.009284 -1.090744
H 5.662205 -0.312735 -0.106635 -0.868880 0.146628 0.338958
H 4.563559 -0.268391 2.111804 -0.571499 0.141285 -0.305814
H 1.814836 -0.271797 2.062497 0.578721 0.186645 0.616758
24
Properties=species:S:1:pos:R:3:forces:R:3 energy=-15559.588790885064
N 0.338953 -0.045472 -0.265099 0.316201 -0.726058 -0.030368
N -0.388271 0.784897 0.395272 1.793686 -0.857143 0.104533
C -1.737471 0.396587 0.290545 -1.976991 0.986572 0.012893
C -2.710343 0.749197 1.245537 -1.291435 -0.964221 -0.173282
C -4.083465 0.281082 1.016079 1.480552 -1.357386 0.565644
C -4.474139 -0.508943 -0.112741 0.458979 2.203404 0.535505
C -3.559969 -0.381124 -1.189004 -0.831322 -1.498367 0.226487
C -2.265568 -0.096444 -0.925555 2.425034 1.332984 0.105717
C 1.806429 -0.077077 -0.224226 -2.486368 1.619735 0.472217
C 2.375184 -1.308957 -0.435608 -0.939605 0.486864 -1.182521
C 3.723410 -1.390458 -0.349431 0.502738 -3.344540 -0.023040
C 4.435537 -0.347796 0.083055 4.766459 1.538836 2.148710
C 3.932347 0.915458 0.355478 -0.577730 -0.694042 -0.734814
C 2.593179 1.028176 0.086619 0.325815 -1.379819 0.293101
H -2.452355 1.210355 2.213975 -0.097370 -0.049930 -0.423301
H -4.706677 0.247256 1.906694 -0.325618 0.359722 0.034320
H -5.485617 -0.960875 -0.176936 0.594899 0.352522 -0.079208
H -3.750747 -0.654468 -2.209848 -0.628109 -0.328784 -0.517972
H -1.478143 0.031214 -1.659281 -0.255122 -0.583989 -0.911632
H 1.818945 -2.083250 -0.893421 -0.927079 -1.048786 0.027102
H 4.161906 -2.409426 -0.437414 0.097394 0.732939 -0.204459
H 5.519541 -0.481970 0.404270 -1.026765 -0.131927 -0.738962
H 4.517842 1.733124 0.742546 0.315874 0.258320 0.004428
H 2.122034 1.914173 0.198575 -1.714113 3.093091 0.488903
24
Properties=species:S:1:pos:R:3:forces:R:3 energy=-15559.983836728192
N 0.406532 -0.471328 -0.341425 -0.900746 1.553745 0.919517
N -0.376195 0.554800 -0.127711 1.316990 -1.845262 0.848833
C -1.767574 0.225907 -0.028095 0.380116 -1.620498 -2.370718
C -2.495740 1.088016 0.735123 -0.367690 1.007417 -0.206521
C -3.880870 1.037709 0.851388 0.268302 1.476143 1.931915
C -4.576085 0.152866 0.086413 -1.967854 -1.300315 0.802101
C -3.865992 -0.779518 -0.660891 -1.147822 -1.590713 -0.938395
C -2.477690 -0.811234 -0.742638 0.116766 -0.079745 -0.354538
C 1.795941 -0.252088 -0.061258 0.073879 -0.793516 -2.209272
C 2.648477 -0.818370 -1.106000 -0.802329 1.249992 1.997845
C 4.013407 -0.644216 -1.031533 -1.563632 0.587146 2.338534
C 4.528071 -0.056985 0.152560 -1.091924 -0.631390 -0.791855
C 3.702988 0.418104 1.214169 3.353675 0.490016 -0.919760
C 2.361115 0.366527 1.080362 -3.242808 0.583352 0.542118
H -1.974966 1.959471 1.059793 0.539000 0.570597 0.889358
H -4.271370 1.694062 1.678716 -0.299600 -0.467631 -1.137684
H -5.678511 -0.074798 0.220097 1.079125 0.760045 -0.203132
H -4.568554 -1.566948 -1.116551 1.501276 0.854379 0.154197
H -2.053265 -1.585339 -1.429968 0.247126 0.767206 0.807078
H 2.250135 -1.328958 -1.951236 -0.810275 -0.360323 -0.577706
H 4.542487 -1.093548 -1.813932 1.568179 -0.372860 -1.012767
H 5.576212 -0.122838 0.162013 1.653579 0.520650 0.758507
H 4.238571 0.994693 2.002628 -0.634258 -0.627646 -0.124923
H 1.683942 0.837461 1.874054 0.730926 -0.730790 -1.142731
24
Properties=species:S:1:pos:R:3:forces:R:3 energy=-15559.689674276529
N 0.425591 0.475845 0.038131 -0.144473 0.469838 0.602634
N -0.451490 -0.189539 -0.615156 0.672810 0.148605 0.660172
C -1.781918 0.080720 -0.197187 -1.336548 -0.361280 -0.227329
C -2.314724 0.932712 0.836632 4.673896 0.554122 -1.318524
C -3.631002 0.895324 1.069830 -2.875715 -1.200012 -0.376574
C -4.593019 0.024074 0.383254 2.050143 0.797437 0.321123
C -4.097043 -0.719023 -0.680488 -1.268188 -2.187600 0.457121
C -2.731748 -0.724515 -0.860777 1.973387 -0.820869 -2.139725
C 1.792973 0.151278 -0.071971 0.566801 -1.148886 -2.372504
C 2.403703 -0.733511 -1.094330 1.928010 0.854691 1.214037
C 3.814881 -0.995639 -0.899042 -1.276561 -1.604317 -1.328512
C 4.488103 -0.450256 0.203268 2.837844 -0.270476 -1.355126
C 3.968544 0.475982 1.060393 -0.727587 0.107315 -0.231058
C 2.653318 0.791408 0.856473 -2.197179 0.829449 0.662056
H -1.483004 1.620373 1.293048 -1.920139 -1.066610 -0.283816
H -3.982330 1.500077 1.851365 -0.824402 0.919819 1.226720
H -5.580258 -0.179095 0.753580 -0.610436 0.462818 0.241117
H -4.697410 -1.611340 -1.143742 0.806313 1.924640 0.562584
H -2.295631 -1.417337 -1.642202 -0.386827 0.650141 0.766866
H 2.029801 -1.027111 -2.095415 -0.643757 0.010898 0.965876
H 4.331120 -1.786940 -1.637997 -0.899119 2.028202 1.577208
H 5.603437 -0.422099 0.204403 -0.516775 -0.971682 0.036681
H 4.586656 0.967992 1.794171 0.136494 0.258109 0.237004
H 2.180382 1.611437 1.419944 -0.017993 -0.384351 0.101967
24
Properties=species:S:1:pos:R:3:forces:R:3 energy=-15559.839284704041
N 0.432737 0.369894 0.256294 -3.386918 -0.816605 0.071958
N -0.375150 -0.416583 -0.380186 0.484034 -0.571925 -0.942324
C -1.745704 -0.187409 -0.257028 -0.347660 1.512510 0.472936
C -2.149332 0.318362 0.998465 0.173051 -1.157210 1.694803
C -3.501713 0.497854 1.276333 0.814410 2.737032 0.987132
C -4.399923 0.553875 0.238477 -1.183751 -1.851630 -0.803262
C -4.090593 -0.023867 -1.050996 -0.720758 1.977351 1.908397
C -2.752512 -0.319844 -1.294805 0.472275 -0.453690 -0.248518
C 1.704797 -0.070940 0.285845 3.041041 2.179855 0.216819
C 2.272891 -1.219735 -0.251906 -0.447424 -0.389626 0.197061
C 3.604591 -1.302799 -0.549081 1.198850 0.871142 -0.600262
C 4.433776 -0.205176 -0.306003 -1.931447 0.849633 1.053370
C 3.971234 0.938509 0.365481 -1.250568 -1.362342 0.119226
C 2.591962 0.986711 0.683252 1.817275 -1.270823 -0.871351
H -1.471365 0.378147 1.921655 -0.449253 -0.060332 -1.737917
H -3.685066 1.090352 2.225317 -0.313720 -1.116332 -0.697646
H -5.440881 0.786794 0.483282 0.005721 0.220539 -0.254643
H -4.980852 0.077897 -1.722901 1.287123 -0.642558 -0.231882
H -2.514189 -0.612415 -2.320756 0.509653 -0.155878 0.173178
H 1.610259 -2.012846 -0.437763 -0.910325 -1.232635 -0.606258
H 4.084919 -2.041202 -1.182833 -0.436045 -0.800830 0.201740
H 5.387187 -0.173597 -0.684651 2.565801 -0.238214 -0.821410
H 4.674597 1.707605 0.640267 0.057126 0.517838 0.060969
H 2.256389 1.858677 1.155649 -1.048493 1.254729 0.657883
24
Properties=species:S:1:pos:R:3:forces:R:3 energy=-15559.739735284837
N 0.447826 -0.015447 -0.520027 -1.978268 -1.390758 -1.859575
N -0.338918 0.372249 0.398992 1.164395 -0.390899 0.343268
C -1.667018 0.186062 0.117520 -3.222978 -0.068642 1.506757
C -2.559694 0.606572 1.168142 1.335716 0.838515 0.485044
C -3.914757 0.589643 1.091115 -1.298740 -1.156336 -2.270726
C -4.564491 0.061163 -0.048769 -0.237270 0.271418 0.328473
C -3.705704 -0.355412 -1.088866 -1.523277 -0.804028 0.789747
C -2.351711 -0.473666 -0.963620 2.217263 2.292816 0.791481
C 1.768617 -0.148768 -0.275660 0.552636 0.418189 1.497804
C 2.538197 -1.164864 -0.922557 -0.691821 0.414835 0.495838
C 3.867286 -1.171112 -0.558034 0.486675 0.146835 0.055159
C 4.482493 -0.154043 0.161131 -2.068013 0.499256 0.384722
C 3.692767 0.840757 0.747162 1.098525 2.414971 0.818532
C 2.313859 0.756200 0.700263 0.032844 0.824933 -1.578365
H -2.324132 1.083248 2.128885 1.362433 -0.133732 -0.379673
H -4.450657 1.057075 1.857274 -1.089255 0.449510 1.381037
H -5.701364 -0.033863 -0.108665 1.540647 0.289494 -0.111803
H -4.184587 -0.742435 -1.950142 -0.388004 -0.472825 -1.185306
H -1.663862 -0.663456 -1.753887 0.180561 -0.853580 -1.102696
H 2.159888 -1.975669 -1.596895 -0.130078 0.966000 0.608596
H 4.480088 -1.970497 -0.863105 0.860463 -1.113620 -0.704621
H 5.509115 -0.085925 0.291985 2.122653 -0.167693 0.057832
H 4.187154 1.849482 1.133530 -0.838101 -2.240979 -0.337909
H 1.668409 1.617522 1.020200 0.510996 -1.033678 -0.013616
24
Properties=species:S:1:pos:R:3:forces:R:3 energy=-15559.910929918029
N 0.444555 0.381711 0.313712 -0.983710 1.575355 0.450693
N -0.351182 -0.443350 -0.190743 -0.047489 -0.754960 -1.206267
C -1.717599 -0.119019 -0.123258 0.929297 0.993407 1.069953
C -2.234591 0.973061 0.555397 -0.969169 2.382675 1.631455
C -3.617802 1.250798 0.752952 0.069473 -3.660301 -2.161785
C -4.611873 0.295877 0.221033 4.732576 1.128753 -0.294181
C -3.939665 -0.674007 -0.557436 -2.744818 -2.312838 -1.648512
C -2.579099 -0.911413 -0.803321 -1.233278 -0.165659 0.759475
C 1.772850 0.195916 0.043707 0.104337 -0.947842 -0.469427
C 2.233149 -0.613537 -1.030289 -0.396675 0.686128 0.747458
C 3.568831 -0.966546 -1.049500 0.142267 -0.606051 -1.500167
C 4.457674 -0.472223 -0.077882 0.139941 -1.358148 1.564101
C 3.944625 0.385472 0.962891 1.790700 -0.839542 -1.131031
C 2.645666 0.755361 0.978216 -0.534902 -0.323209 -1.141006
H -1.513084 1.702025 0.973901 -0.262171 -0.365645 -0.141980
H -3.983335 2.140902 1.118244 -0.417435 2.164278 1.334121
H -5.671752 0.462653 0.236697 -0.486478 -0.174070 0.124938
H -4.608695 -1.405532 -1.096199 0.383488 0.575715 0.430329
H -2.100828 -1.710757 -1.344415 -0.523454 -0.607415 -0.546066
H 1.511641 -0.967685 -1.768086 0.066700 -0.064865 0.109000
H 3.812091 -1.684031 -1.910420 0.405410 0.921591 1.381562
H 5.373636 -1.109827 0.101004 -0.393056 1.310995 -0.374602
H 4.495023 0.796994 1.793622 1.008995 -0.204435 0.076220
H 2.315251 1.443302 1.706444 -0.780550 0.646082 0.935719
24
Properties=species:S:1:pos:R:3:forces:R:3 energy=-15560.158370398349
N 0.315578 0.421925 0.456269 1.679134 -1.235781 -1.644886
N -0.365296 -0.285030 -0.376610 0.211942 0.798280 0.736544
C -1.778325 -0.152409 -0.197429 0.276714 0.055829 -1.239455
C -2.350044 0.197932 0.998776 0.070182 1.181804 3.305909
C -3.721584 0.428969 1.169834 -1.053030 -0.196972 0.912997
C -4.593792 0.210711 0.079306 0.238385 0.277408 0.585100
C -4.049910 -0.174232 -1.159699 1.301952 1.144694 1.399132
C -2.632953 -0.278872 -1.302888 -1.578079 -0.667219 -1.662288
C 1.804005 0.172145 0.203300 -1.232840 -0.883656 0.904416
C 2.325731 -1.086917 -0.208662 -2.315554 -1.745285 -0.580461
C 3.679970 -1.316892 -0.391631 -0.578736 -0.748062 -0.089417
C 4.557035 -0.253678 -0.280247 -0.170719 1.384805 1.020145
C 4.113420 0.947335 0.380322 0.443238 0.304406 -1.389810
C 2.721376 1.124748 0.637139 0.985133 1.123803 0.373404
H -1.671432 0.424031 1.889630 -0.698164 -0.492311 -1.174973
H -4.209833 0.736931 2.189389 1.225671 -0.495366 -1.762839
H -5.659357 0.449105 0.251674 0.324659 -0.323220 -0.425478
H -4.674088 -0.080443 -2.015046 -0.492325 -0.450598 -0.955699
H -2.362733 -0.440317 -2.385665 0.599602 0.034939 1.273819
H 1.617350 -1.999300 -0.466670 1.066741 2.036239 0.715387
H 4.001036 -2.363686 -0.600318 -0.014538 0.835485 -0.253566
H 5.526722 -0.384312 -0.735616 0.706519 0.258007 0.380607
H 4.828250 1.843696 0.474259 -1.024858 -1.394347 0.100950
H 2.402127 2.070642 1.148348 0.028972 -0.802882 -0.529538
24
Properties=species:S:1:pos:R:3:forces:R:3 energy=-15559.903632268204
N 0.408621 0.494504 0.330233 1.332276 -0.220479 -0.069785
N -0.383923 0.029275 -0.534874 1.384339 -0.236949 -0.384590
C -1.669760 0.134948 -0.188676 -4.970619 -2.659679 -2.854203
C -2.265869 0.819374 0.866821 2.663323 0.422679 1.180247
C -3.602195 0.769174 1.148767 0.114174 -0.057254 -0.209799
C -4.403308 0.047949 0.282821 -2.101913 0.487175 0.484126
C -3.951201 -0.762310 -0.777217 1.107158 0.400486 -0.355232
C -2.583539 -0.747208 -1.101735 1.026788 2.305614 1.858515
C 1.767866 0.151362 0.047541 -1.181830 1.094701 1.705090
C 2.146013 -0.872668 -0.804566 -1.301235 -0.362114 -1.124335
C 3.484339 -1.145677 -0.855723 1.065477 -0.184415 0.646645
C 4.410982 -0.446811 -0.076480 -2.217525 1.382002 0.757380
C 4.012033 0.640063 0.775978 -0.037857 -0.873433 -1.391633
C 2.641915 0.877774 0.894789 1.521156 -1.982874 -2.390076
H -1.503504 1.311492 1.514319 -0.711147 0.036615 -0.210932
H -4.066915 1.277211 2.004492 0.278837 0.066466 -0.273870
H -5.448153 0.364679 0.530062 0.123325 -1.356379 -0.828058
H -4.590420 -1.352170 -1.429299 -0.475457 0.117317 0.122614
H -2.176672 -1.198892 -2.041832 -0.155528 0.159015 1.013200
H 1.352591 -1.403457 -1.414310 0.940980 0.564841 0.707969
H 3.934010 -1.960323 -1.387742 -0.207878 -0.663260 -0.680140
H 5.346911 -0.891256 -0.076130 2.357554 -0.148331 0.055817
H 4.752257 1.352718 1.110471 0.279903 -0.088219 0.790870
H 2.208313 1.584924 1.504185 -0.834302 1.796475 1.450180
24
Properties=species:S:1:pos:R:3:forces:R:3 energy=-15559.710860799702
N 0.350299 -0.319977 -0.295596 -0.560668 0.374949 -0.402999
N -0.297760 0.180849 0.660280 -1.253086 0.164271 -0.202304
C -1.702887 0.107588 0.384297 1.738675 -0.145739 -0.465175
C -2.479625 1.026518 0.996142 -5.015750 -1.583162 0.323540
C -3.933581 0.886608 0.834970 1.427279 1.543501 -1.791950
C -4.420509 0.206291 -0.304834 -0.689959 -0.097678 1.136280
C -3.534524 -0.646065 -0.985894 0.407116 -0.364130 -0.863237
C -2.187802 -0.691827 -0.642581 0.839564 -0.985057 -1.368104
C 1.699684 -0.094908 -0.203732 -0.159332 -3.034196 -2.939744
C 2.440900 -0.871109 -1.226920 0.863761 1.276990 2.152114
C 3.798828 -0.847505 -1.053204 2.330644 0.296114 1.085712
C 4.400701 -0.161225 0.082107 -0.883552 0.053226 -1.416965
C 3.611301 0.574217 0.976098 -0.654142 -0.853965 -1.605412
C 2.216158 0.634272 0.816817 3.294366 -0.545834 -0.484089
H -2.187951 1.687044 1.725563 1.268723 1.548480 1.757566
H -4.606733 1.636353 1.277711 0.269544 -0.304875 0.264049
H -5.508567 0.352105 -0.569101 1.103372 -0.496478 0.112892
H -3.805175 -1.254236 -1.860781 -0.395153 0.282749 0.185112
H -1.338248 -1.202007 -1.261717 -1.868367 0.449144 1.071011
H 2.185088 -1.553375 -2.027703 -1.467379 0.263011 -0.026709
H 4.473724 -1.409795 -1.748497 -0.486887 0.467617 0.514585
H 5.480071 -0.040048 0.139616 0.160813 -0.368736 0.092961
H 4.108951 1.100798 1.721802 0.784401 1.066514 1.569384
H 1.557335 1.152550 1.429172 -1.053982 0.993283 1.301482
24
Properties=species:S:1:pos:R:3:forces:R:3 energy=-15559.716749161138
N 0.387395 0.282124 0.292860 -0.971951 0.519455 -0.266333
N -0.387702 -0.312320 -0.513037 -1.147705 0.102299 0.215065
C -1.770739 -0.140115 -0.184030 0.861467 0.786344 -1.004765
C -2.216463 0.310514 1.074831 -0.520930 -0.664527 1.222108
C -3.587590 0.314052 1.404346 1.608238 1.080575 -1.723292
C -4.465057 0.352432 0.334611 -1.113354 -1.089535 -0.751800
C -3.981273 0.117953 -0.984955 0.814847 -0.487895 0.347309
C -2.636610 -0.213273 -1.320356 -0.630287 -0.096640 1.415979
C 1.701542 0.103239 -0.031267 3.199129 0.765649 1.293798
C 2.185542 -1.014810 -0.732653 2.862763 0.980498 1.592852
C 3.589055 -1.272191 -0.581463 -3.769222 0.561105 -0.457360
C 4.433358 -0.425515 0.040090 3.624450 1.896267 -0.361185
C 4.100797 0.847845 0.562548 -3.650061 -0.276662 0.406761
C 2.647022 1.039187 0.637316 -0.011932 -0.010077 -0.723039
H -1.599764 0.613776 1.945611 0.487156 -0.614938 -0.921093
H -3.796841 0.595548 2.401361 -0.814997 0.073535 1.138606
H -5.579398 0.370705 0.503801 1.029327 0.266398 -0.282280
H -4.706443 0.100796 -1.746620 -1.023788 0.040676 -1.175337
H -2.234888 -0.544130 -2.340803 -0.720800 0.596161 1.459476
H 1.567031 -1.685126 -1.241971 -1.142965 -1.024000 -0.674938
H 4.000047 -2.151504 -0.945480 0.655854 -1.815724 -1.013815
H 5.501298 -0.690947 -0.239431 -0.726897 0.456899 1.146465
H 4.743660 1.622001 1.022484 0.013035 -0.675723 -0.412130
H 2.114531 1.958290 1.091304 1.088621 -1.370143 -0.471049
24
Properties=species:S:1:pos:R:3:forces:R:3 energy=-15560.399657203590
N 0.401305 -0.290163 -0.305198 0.058824 -1.694305 -1.261561
N -0.372878 0.508639 0.221523 -0.871166 1.419962 1.204381
C -1.790943 0.240231 0.109301 0.734364 -1.037561 -0.505790
C -2.568574 1.153483 0.816731 0.952285 0.188869 -0.350464
C -3.925408 1.058383 0.741109 -3.344838 0.876119 0.123846
C -4.551070 0.050615 -0.028530 0.666653 -0.236061 -0.938271
C -3.762699 -0.893124 -0.744818 0.095438 -0.101994 -0.126846
C -2.365306 -0.822891 -0.662385 0.744810 0.990819 0.001599
C 1.800651 -0.150607 -0.138087 -1.800940 -1.615491 -2.850082
C 2.541090 -0.748621 -1.167498 0.451963 0.133193 -0.240343
C 3.936331 -0.597835 -1.019578 0.541388 -0.337761 -3.471544
C 4.541733 -0.033532 0.073077 -0.583675 -0.353268 1.288003
C 3.738120 0.212787 1.183753 -0.032308 0.360843 -1.266374
C 2.386741 0.260396 0.985908 -0.461781 1.081626 2.775298
H -2.031441 2.003286 1.231399 -0.102123 0.028722 0.417888
H -4.639380 1.858210 1.172720 1.305183 -1.124562 -0.428617
H -5.604711 0.098981 -0.333489 0.038765 0.012583 0.671555
H -4.239218 -1.632988 -1.437362 0.280843 0.574051 0.609650
H -1.633427 -1.373562 -1.299198 -0.738247 -0.047235 0.519836
H 1.979311 -1.223273 -2.028931 0.944307 0.542145 0.855097
H 4.617101 -0.775915 -1.910977 -0.853468 -0.208551 0.870936
H 5.587391 0.161240 0.136842 0.948113 -0.143100 -0.141451
H 4.111585 0.450057 2.124793 0.953591 0.640307 1.678647
H 1.688150 0.623802 1.732129 0.072019 0.050649 0.564607
24
Properties=species:S:1:pos:R:3:forces:R:3 energy=-15560.050315760411
N 0.523350 0.495618 0.370415 -5.258289 0.214723 0.038486
N -0.322117 -0.329356 -0.159930 -0.706046 0.158511 -0.305647
C -1.741505 -0.112550 -0.030570 0.611692 0.708428 -0.022818
C -2.312736 0.545452 1.037510 -2.410846 -0.122343 -0.723794
C -3.737662 0.784052 1.068861 3.715862 0.361989 1.547779
C -4.504987 0.342271 0.069801 -3.254162 -0.468373 -1.752348
C -3.994200 -0.347169 -1.025505 1.235579 -1.268648 -0.124318
C -2.604981 -0.551460 -1.040626 0.609439 -0.185730 -1.522970
C 1.779025 0.142859 0.135456 2.438983 0.247246 0.528838
C 2.108863 -0.999888 -0.577660 3.752270 -0.105174 0.064293
C 3.490379 -1.327066 -0.721401 -0.295587 -0.848596 -1.404320
C 4.463744 -0.431417 -0.269278 -0.127717 1.273938 1.380707
C 4.085802 0.724289 0.468927 0.111354 1.354646 0.680468
C 2.740107 1.027794 0.703655 0.203118 0.179096 -0.733749
H -1.589265 0.813438 1.723865 0.981652 1.082902 2.189261
H -4.176770 1.312721 1.886156 -0.209950 0.427958 0.693896
H -5.600173 0.565966 0.103147 0.671870 -0.305135 0.012114
H -4.588966 -0.947298 -1.746181 0.052791 0.957144 0.184608
H -2.070450 -0.880280 -1.946439 -0.470055 -0.554544 0.142603
H 1.402898 -1.564478 -1.100734 -1.307157 -0.925982 -0.419449
H 3.797366 -2.255558 -1.350531 -0.503139 1.520471 1.104647
H 5.538683 -0.474499 -0.361918 0.344917 -0.844934 -0.490654
H 4.808379 1.511648 0.894384 -0.513691 -1.452987 -0.857776
H 2.400574 2.024879 1.128505 0.327111 -1.404607 -0.209856
24
Properties=species:S:1:pos:R:3:forces:R:3 energy=-15559.864908636924
N 0.322144 -0.168409 -0.289094 1.727506 0.079949 -0.686008
N -0.422252 0.183042 0.674709 0.550988 0.656310 -0.740184
C -1.763705 0.184067 0.218857 -2.010666 -0.022440 1.836439
C -2.660957 1.110632 0.943463 0.459593 -2.681566 -2.736856
C -4.029044 1.071794 0.646011 -0.568477 0.626552 -0.262350
C -4.587996 0.063400 -0.251174 -0.534491 1.359812 -0.423278
C -3.703946 -0.814316 -0.862766 1.025045 -1.698266 -1.164281
C -2.296376 -0.802261 -0.645293 -1.209480 1.452181 1.345000
C 1.766217 -0.066217 -0.178732 0.338731 -1.636843 0.434845
C 2.510926 -0.825331 -1.138910 -1.560763 -0.010791 0.044167
C 3.929109 -0.741762 -1.094854 -0.617295 0.091528 1.210645
C 4.607435 -0.200895 -0.003089 -0.626010 1.345346 1.971495
C 3.826819 0.447249 1.101901 2.204300 -0.828490 -3.253024
C 2.497951 0.554739 0.886096 -2.859890 0.593808 0.499665
H -2.130616 1.785380 1.562573 0.037326 0.986521 0.887518
H -4.613393 1.955207 1.049253 0.107715 -1.308155 -0.367784
H -5.670171 0.050168 -0.678530 1.663774 0.260106 1.299870
H -4.018001 -1.631160 -1.604030 -0.112445 1.173984 1.087596
H -1.661840 -1.600826 -0.954405 0.473827 -0.473794 -0.639066
H 1.843797 -1.520237 -1.807228 1.611667 1.449392 0.691056
H 4.563064 -1.079767 -1.864258 0.474792 -0.930507 -1.238771
H 5.731670 -0.173504 0.057002 -1.085282 -0.086443 -0.236557
H 4.325677 1.096041 1.804505 0.259542 -0.208245 0.611890
H 1.871848 1.140557 1.587020 0.249993 -0.189949 -0.172027
24
Properties=species:S:1:pos:R:3:forces:R:3 energy=-15560.003205018900
N 0.319288 -0.218743 -0.505796 0.850013 0.056216 0.291508
N -0.267383 0.369798 0.458883 -2.013746 -0.468876 -0.446643
C -1.708810 0.192254 0.284725 -1.337141 0.273781 -0.806906
C -2.615337 0.452784 1.350257 -0.018459 -0.527339 -1.651203
C -3.991536 0.389705 1.135179 -0.438733 0.857033 -1.462154
C -4.519299 0.084082 -0.138090 -0.192822 -1.550640 1.334439
C -3.663603 -0.327891 -1.154897 1.251521 1.227936 0.493860
C -2.274111 -0.119083 -1.026753 -0.727909 0.492174 3.446333
C 1.714632 -0.098941 -0.384983 1.316505 -1.834818 0.941481
C 2.518127 -1.293621 -0.537759 -2.352205 1.300675 -0.909493
C 3.855589 -1.277061 -0.361748 1.180780 1.646655 1.759823
C 4.510156 -0.149432 0.268625 0.351086 -1.847418 -1.250190
C 3.752207 0.975698 0.453782 -0.055814 1.472577 0.667463
C 2.377736 0.981536 0.159979 -0.146002 2.793790 -0.929735
H -2.249440 0.681739 2.297688 0.803136 0.540533 1.755119
H -4.773058 0.828039 1.740781 0.291008 -0.186072 1.216183
H -5.622521 -0.094443 -0.151238 0.746323 0.410890 -0.527035
H -4.101578 -0.609467 -2.064491 -0.412597 -0.452909 -1.627595
H -1.514444 -0.000810 -1.728329 0.793841 -0.617504 -2.110561
H 1.992250 -2.177167 -0.849410 -0.164784 -0.574573 -0.326376
H 4.386172 -2.163669 -0.546105 0.980786 -1.264540 -0.218978
H 5.600885 -0.241123 0.465914 -0.690504 0.347435 -0.013448
H 4.189010 1.932558 0.845026 -0.230007 -0.856317 -0.292866
H 1.898715 2.008919 0.066767 0.215722 -1.238691 0.666974
24
Properties=species:S:1:pos:R:3:forces:R:3 energy=-15560.127723894639
N 0.382308 0.061981 0.320043 0.698743 1.856467 2.011620
N -0.466162 -0.509703 -0.371965 -0.019137 -1.592034 -1.300072
C -1.801442 -0.178760 -0.101264 -1.525106 0.151784 -0.858975
C -2.321061 0.600958 0.935526 0.446952 0.745158 0.576660
C -3.665729 0.921902 1.138947 1.626929 -1.870232 -1.932944
C -4.531364 0.424601 0.184912 -2.903768 0.434794 -0.131184
C -4.111264 -0.250050 -0.934075 3.349020 -0.342709 1.047527
C -2.732497 -0.608487 -1.058775 -0.877997 -1.207734 -1.432058
C 1.752115 -0.136180 0.176410 2.347795 0.500901 -0.896319
C 2.476128 -1.247464 -0.355865 -0.698533 0.738003 -0.067961
C 3.846369 -1.172548 -0.552528 -0.279098 3.507398 1.387066
C 4.627117 0.043150 -0.230260 -2.263352 -3.690197 -0.736522
C 3.975780 1.060743 0.402089 0.473419 1.149613 -0.827750
C 2.577859 0.995124 0.495597 -1.052265 0.078006 1.450364
H -1.593517 1.052867 1.565844 0.737896 0.237562 0.945248
H -3.954310 1.370083 2.022106 -0.768686 1.280461 1.786586
H -5.661771 0.519083 0.217888 1.176696 0.295544 0.458957
H -4.832414 -0.576560 -1.593313 -1.417392 -0.858183 -1.757491
H -2.406356 -1.317848 -1.903535 -0.311709 1.184137 1.124953
H 1.893864 -2.069750 -0.743317 -0.062161 -0.604822 0.063156
H 4.301303 -1.980428 -0.983844 1.448218 -2.105994 -1.233940
H 5.624125 0.061687 -0.583205 1.272259 0.168650 0.028629
H 4.652896 1.946453 0.553074 -1.324741 -0.293134 0.388546
H 2.045020 1.818243 0.970146 -0.073982 0.236560 -0.094096
24
Properties=species:S:1:pos:R:3:forces:R:3 energy=-15559.030367003968
N 0.316563 -0.063272 0.617586 1.331703 0.129541 -0.067831
N -0.393902 -0.273273 -0.413548 0.738323 -0.215035 0.447696
C -1.771169 -0.126673 -0.190590 0.943144 0.767475 -0.113589
C -2.216919 0.857780 0.752808 -1.144910 -1.074975 -0.475895
C -3.550241 1.064282 1.023823 -1.076520 0.390506 -1.359123
C -4.435108 0.395825 0.141754 -3.041028 1.742615 3.009084
C -3.979178 -0.396485 -0.797854 -0.117452 -2.566265 -4.927449
C -2.637003 -0.723096 -1.097400 -1.746611 0.020090 1.218516
C 1.788962 -0.131367 0.328223 -2.295426 -0.611482 1.950988
C 2.173389 -0.811792 -0.830987 1.427647 1.651809 1.662317
C 3.522807 -0.672997 -1.176642 -0.172981 -0.050419 -4.395942
C 4.497637 0.098794 -0.495388 -2.163258 -0.978740 2.839928
C 4.077750 0.449207 0.829479 -2.898576 -1.012184 0.008140
C 2.671533 0.297125 1.353454 2.889974 0.510122 -3.224914
H -1.551440 1.542404 1.156233 1.795804 0.888791 0.937029
H -3.970944 1.942485 1.539126 0.533658 -0.428556 0.444067
H -5.589402 0.450061 0.155380 1.748523 0.543873 0.407596
H -4.747650 -0.632481 -1.583391 0.611544 -0.565437 0.655618
H -2.504787 -1.509478 -1.854221 0.781515 0.544880 0.180145
H 1.318510 -1.262724 -1.303029 0.194255 -0.373737 -1.082784
H 3.632229 -0.928720 -2.319513 0.657549 -0.053604 2.045396
H 5.569737 0.146420 -0.636447 0.081070 0.047202 -0.851008
H 4.797459 0.706708 1.548242 1.174852 0.767496 0.977253
H 2.423440 0.640051 2.361122 -0.252801 -0.073968 -0.285240
24
Properties=species:S:1:pos:R:3:forces:R:3 energy=-15559.946302803071
N 0.411428 0.346582 0.233785 -1.046170 -0.880723 -0.101727
N -0.413561 -0.579477 -0.176647 0.987007 2.378400 0.913535
C -1.765583 -0.125474 -0.026403 -0.431593 -2.374070 -1.145270
C -2.279122 0.850565 0.875328 3.347822 -1.578482 -0.818050
C -3.574374 1.156379 0.883040 -1.886805 0.463667 -0.388391
C -4.474492 0.477293 0.053460 1.659118 0.210708 0.590158
C -4.011040 -0.547702 -0.733388 -1.155023 -1.220692 -2.927312
C -2.649204 -0.898570 -0.854796 -1.127653 1.260763 1.500635
C 1.788888 0.056775 0.080371 -1.748424 1.350742 0.305071
C 2.201780 -0.781072 -0.921693 4.462932 -0.581739 2.302467
C 3.574922 -1.138445 -0.888422 -0.278248 3.066701 0.424872
C 4.495684 -0.279907 -0.184529 1.089088 -1.362249 0.503529
C 4.057980 0.597576 0.830643 -1.112265 1.663479 -1.247781
C 2.633781 0.830030 0.869853 1.912967 0.265669 1.046521
H -1.511378 1.229438 1.521845 0.198184 0.777154 0.455348
H -3.930802 2.011942 1.414935 -0.293070 0.471082 0.807051
H -5.443723 0.855046 0.083537 -2.032897 0.169070 -0.326745
H -4.728023 -0.999307 -1.529620 0.944936 0.432559 1.531444
H -2.438736 -1.747695 -1.512660 0.718245 0.368565 0.179797
H 1.490298 -1.258803 -1.447383 -2.369995 -1.835001 -2.155773
H 4.027672 -1.807135 -1.554521 0.370713 -1.220475 -1.209907
H 5.623550 -0.427523 -0.393303 -1.709066 0.197280 0.452390
H 4.724569 1.389458 1.301512 -0.581625 -1.293313 -0.344547
H 2.225511 1.638135 1.519143 0.081821 -0.729097 -0.347315
24
Properties=species:S:1:pos:R:3:forces:R:3 energy=-15559.787489545626
N 0.306860 -0.394127 -0.240067 0.108461 -0.972768 -0.341517
N -0.350446 0.481284 0.371252 0.694260 1.124214 1.408523
C -1.720394 0.418906 0.239054 -1.389273 -1.362889 0.667327
C -2.603650 0.632602 1.339044 0.217079 0.530391 -1.749820
C -3.987603 0.426995 1.060585 1.668054 0.088506 0.549896
C -4.417469 -0.071714 -0.157987 0.166481 -0.466427 -0.483067
C -3.516734 -0.350252 -1.196140 -1.696671 0.075257 0.138728
C -2.215644 -0.124392 -0.951202 2.636334 0.626864 -1.485730
C 1.713125 -0.267795 -0.131245 0.433956 -0.708901 0.499951
C 2.498075 -1.445609 -0.363611 -1.265284 -0.723309 -1.693707
C 3.889366 -1.291597 -0.464134 -0.667711 0.496024 0.242847
C 4.437215 -0.007209 -0.045843 -0.894088 -3.480390 -1.455080
C 3.706134 1.069221 0.330292 -1.170107 2.377797 0.607513
C 2.253122 0.953665 0.250393 4.500687 -2.230258 -0.485952
H -2.159044 1.039332 2.258645 -0.515836 -0.200463 -0.040195
H -4.643832 0.667121 1.856683 -1.039325 0.048931 0.731101
H -5.414879 -0.377071 -0.412553 -0.954000 0.352053 0.513569
H -3.952720 -0.673419 -2.146574 0.431193 -0.144484 -0.003377
H -1.395167 -0.233489 -1.696946 -0.819657 -0.270671 0.103795
H 1.866297 -2.396954 -0.682369 1.521818 1.750122 0.644679
H 4.551038 -2.081412 -0.943917 -0.716165 0.858398 0.968373
H 5.460802 -0.094475 -0.185999 2.362679 0.955357 0.183538
H 4.323975 2.031880 0.623318 -1.664863 -1.648067 -0.442712
H 1.545668 1.588667 0.589069 -1.948021 2.924712 0.921317
24
Properties=species:S:1:pos:R:3:forces:R:3 energy=-15559.682091531393
N 0.342621 -0.385800 0.234056 1.643090 -0.957144 0.992986
N -0.357081 -0.113406 -0.738083 -2.496108 1.168832 -0.031256
C -1.708592 0.098843 -0.251378 -1.738377 0.233102 -1.654755
C -2.186998 0.387764 1.048044 0.326546 -2.118719 1.090374
C -3.544392 0.276073 1.411038 -0.028073 0.941195 -1.597275
C -4.453805 0.278729 0.316602 2.628890 -0.351666 0.735575
C -4.033152 0.146623 -0.993839 -0.725308 -0.018701 0.191914
C -2.685352 0.039722 -1.264221 0.432058 0.192750 -2.311670
C 1.729679 -0.313256 -0.038612 -0.062048 1.396540 1.278205
C 2.570650 -1.358656 -0.244588 2.366762 -0.538907 -0.810858
C 4.002645 -1.163203 -0.247061 -1.959337 -0.176369 0.193597
C 4.513096 0.074112 0.051667 -2.393633 -0.827890 0.064865
C 3.606101 1.054165 0.382563 -0.538098 1.807418 0.106053
C 2.229615 0.964718 0.326523 -0.360792 -1.246527 -0.370945
H -1.480141 0.308237 1.856705 0.640228 0.382291 0.363919
H -3.938991 0.333658 2.446652 0.537658 0.149018 -0.529435
H -5.389763 0.638150 0.458897 -3.459967 0.354540 0.749194
H -4.832518 0.134513 -1.755824 0.623954 0.138243 -0.030423
H -2.443462 0.050430 -2.378023 0.352946 -0.408903 1.438209
H 2.180675 -2.299265 -0.567207 -0.317362 -0.871006 0.087388
H 4.660045 -1.988945 -0.348264 0.525496 -1.000842 -0.474728
H 5.510515 0.303410 0.109799 2.627884 0.287225 0.120646
H 4.027471 1.970780 0.702034 0.416369 1.324979 0.312723
H 1.436504 1.699312 0.560632 0.957223 0.140543 0.085696
24
Properties=species:S:1:pos:R:3:forces:R:3 energy=-15559.430845393708
N 0.307148 -0.473043 -0.338357 -0.746043 1.785496 1.167387
N -0.344212 0.520114 0.301835 0.474767 -3.347470 -1.181679
C -1.756879 0.225385 0.249889 1.487481 2.427594 0.230388