9
Properties=species:S:1:pos:R:3:forces:R:3 energy=-4214.993620382532
C 0.538454 -0.251137 0.022912 -0.521115 -0.727301 -0.810601
C 0.209299 1.045117 -0.822120 -2.547759 -1.004112 0.567200
O -0.681346 -0.733526 0.671854 0.307131 0.067855 -0.236313
H 0.985250 -1.134045 -0.571809 -0.714957 1.218970 0.234558
H 1.290180 -0.090498 0.792996 0.278630 0.582664 0.234366
H -0.724902 1.555425 -0.351133 1.304879 -0.903465 -0.490695
H 0.968514 1.775655 -0.745096 1.295109 0.842629 -0.165767
H -0.093541 0.873368 -1.896539 0.528565 -0.112100 0.895522
H -0.521522 -0.799008 1.630435 0.070522 0.035960 -0.222558
9
Properties=species:S:1:pos:R:3:forces:R:3 energy=-4214.961383450859
C -0.260778 -0.346795 -0.349581 -0.164587 -0.095285 -0.527422
C 0.495588 0.858554 -0.825050 -1.424148 1.317519 0.264723
O -0.206804 -0.440822 1.083447 0.193635 2.630788 -1.225890
H -1.254402 -0.206372 -0.826091 -0.419153 -0.454983 0.903525
H 0.152512 -1.195806 -0.881139 0.330045 -0.951873 0.289258
H 1.112553 1.281730 -0.064704 0.744939 0.298427 0.775202
H 1.058889 0.702390 -1.703021 0.973362 -0.494819 -1.179650
H -0.248613 1.624624 -1.105430 0.264299 0.235441 0.161924
H -0.337276 -1.308886 1.379449 -0.493222 -2.485179 0.536890
9
Properties=species:S:1:pos:R:3:forces:R:3 energy=-4214.508733468540
C 0.256866 0.476089 0.264881 3.753949 -0.004100 -1.009972
C -0.865787 0.554032 -0.672096 -3.139704 2.121622 1.198490
O 0.617362 -0.926322 0.323208 -2.405380 -0.662107 2.444260
H 1.216830 1.086034 0.074166 -1.052391 -0.827982 -0.707188
H 0.113891 0.757620 1.265651 -1.101261 0.890377 1.672456
H -0.999296 1.562711 -1.146812 0.007889 -0.597368 0.235355
H -0.847786 -0.216220 -1.417742 0.202691 -0.484523 -0.560513
H -1.809831 0.393496 0.019575 1.114091 0.167279 -1.577357
H -0.218462 -1.156307 0.927173 2.616578 -0.602582 -1.689036
9
Properties=species:S:1:pos:R:3:forces:R:3 energy=-4214.656188061186
C 0.054471 0.196675 0.486515 1.314319 -0.426723 2.900636
C 0.007139 1.153549 -0.652707 1.000842 -2.985165 -2.423900
O -0.035516 -1.227083 0.179216 0.692437 1.304009 0.499485
H 1.111875 0.421551 0.911155 -1.358269 -1.030651 -0.070125
H -0.628562 0.492396 1.363403 0.276423 -0.536008 -1.079381
H -0.657311 0.681930 -1.479387 0.373941 1.424808 1.056751
H -0.275863 2.073185 -0.186253 -0.099750 1.250990 -0.609506
H 1.079526 1.015076 -1.076663 -1.603537 1.223760 0.136623
H -0.801042 -1.297093 -0.396656 -0.596665 -0.224550 -0.413023
9
Properties=species:S:1:pos:R:3:forces:R:3 energy=-4215.003581289620
C 0.235275 0.533915 0.206630 -0.784574 0.532930 -2.387680
C -1.087006 -0.081836 0.676732 0.386425 0.442242 1.005712
O 0.814249 -0.391090 -0.761862 -1.354429 0.583932 -1.495368
H 0.177009 1.597977 -0.263813 -0.219420 -1.366369 0.711814
H 1.031382 0.548345 0.891139 0.764476 0.281887 1.879614
H -1.399400 0.289727 1.693225 -0.227430 0.072415 -0.988883
H -1.884958 -0.135325 -0.090854 0.109562 0.654309 0.325879
H -0.834008 -1.117021 0.839012 0.149541 -0.821394 0.269712
H 0.133426 -0.364288 -1.501620 1.179970 -0.376938 0.679311
9
Properties=species:S:1:pos:R:3:forces:R:3 energy=-4214.869879002506
C -0.379513 -0.364003 -0.127477 0.191581 -1.733896 1.186890
C -0.608116 0.657627 1.016651 -0.906474 0.692416 -2.401150
O 0.894293 -0.319697 -0.788266 0.135468 -1.717096 0.609296
H -0.581710 -1.478935 0.243049 0.962627 1.899624 -0.530429
H -1.114147 -0.260192 -0.893264 -1.163450 0.459190 -0.719785
H -1.685836 0.510579 1.408602 1.665906 0.442927 -0.249581
H 0.196608 0.617744 1.746105 -0.078171 -0.080812 0.487017
H -0.511474 1.649945 0.411897 -0.425170 -0.952509 1.455298
H 1.268807 0.535174 -0.999438 -0.385063 0.993059 0.161430
9
Properties=species:S:1:pos:R:3:forces:R:3 energy=-4214.509648060927
C -0.322940 -0.195391 -0.466931 1.020802 1.514177 -0.764326
C -0.982378 0.240656 0.893772 -2.051283 1.140141 -1.293929
O 1.153525 -0.027345 -0.400140 -0.071689 -0.107133 0.207280
H -0.590033 -1.236995 -0.747992 -0.028546 0.516312 -0.164463
H -0.471839 0.596906 -1.337809 -0.636498 -1.715976 1.562887
H -1.351288 -0.633202 1.536977 0.372101 1.298979 -0.754510
H -0.238283 0.848370 1.365129 0.885486 0.060934 0.891462
H -1.816077 1.143850 0.730319 1.394158 -2.672908 0.233315
H 1.710488 -0.825745 -0.281339 -0.883319 -0.032789 0.081286
9
Properties=species:S:1:pos:R:3:forces:R:3 energy=-4214.551199975065
C 0.162601 -0.248359 -0.485995 2.308841 -2.187602 -2.676748
C -1.221936 -0.025213 -0.105970 -2.771247 -0.833965 -1.076141
O 1.012013 0.280851 0.525859 1.727126 0.597538 -2.670568
H 0.444427 -1.363409 -0.758807 -0.617662 1.215670 1.059791
H 0.349222 0.121122 -1.577229 0.287215 0.669124 1.963984
H -1.237894 0.928933 0.472677 -0.767570 -0.553906 -0.374771
H -1.815573 -0.030462 -1.063868 0.109415 0.942159 0.576780
H -1.756951 -0.915360 0.319791 0.687215 0.707797 0.863675
H 0.574861 0.059524 1.314180 -0.961697 -0.557581 2.327141
9
Properties=species:S:1:pos:R:3:forces:R:3 energy=-4214.798489076728
C -0.311552 -0.464484 0.109194 0.253768 0.723132 -0.623440
C -0.895909 0.980488 0.179174 -1.078411 -3.160314 1.598377
O 1.132193 -0.520672 -0.239260 -1.055841 2.120772 -0.359144
H -0.593556 -1.015036 1.037671 0.993662 0.133145 -0.192491
H -0.941652 -0.945083 -0.689424 0.651510 0.002310 0.223277
H -1.890881 0.634767 0.586942 0.160641 1.180160 -0.531250
H -0.489509 1.688704 0.873947 0.664274 0.362712 0.511087
H -0.967493 1.329880 -0.804777 -0.349478 1.036961 -1.582327
H 1.298594 0.421343 -0.642725 -0.239123 -2.394820 0.951766
9
Properties=species:S:1:pos:R:3:forces:R:3 energy=-4214.779149907699
C 0.042618 -0.121735 -0.449992 2.075873 -0.592199 0.185843
C -0.383244 1.296001 -0.181396 3.027895 0.982159 -0.843960
O 0.353348 -1.085349 0.578950 0.998654 0.486516 0.110024
H -0.758606 -0.511194 -1.007069 -1.226450 -0.944006 -1.351989
H 1.010837 -0.145768 -1.118089 -1.666506 0.182992 1.098691
H -0.481451 1.667535 -1.191587 -0.204943 0.403230 -0.803919
H -1.277067 1.542121 0.257459 -2.689018 -0.202129 1.483128
H 0.334976 2.026779 0.242912 0.292014 -0.647560 0.216879
H -0.379570 -1.345478 1.150173 -0.616030 0.329000 -0.094404
9
Properties=species:S:1:pos:R:3:forces:R:3 energy=-4214.058855393149
C 0.229417 0.219207 0.349994 3.482321 -1.338209 -0.215025
C -0.055131 1.068975 -0.838046 1.577277 1.826275 -2.601548
O -0.135857 -1.180608 0.507857 0.679705 0.197462 -1.021501
H 1.391101 0.197092 0.236933 -1.584367 -0.052687 1.585557
H -0.180284 0.574062 1.244221 -0.026898 1.745205 1.616867
H -0.337966 2.195202 -0.562597 0.637325 -2.331191 -0.719784
H 0.883376 1.009284 -1.646473 -1.674246 0.788436 2.181302
H -0.712129 0.651644 -1.565413 -1.830725 -0.263486 -0.318893
H -0.965391 -1.238645 0.047594 -1.261420 -0.567826 -0.505793
9
Properties=species:S:1:pos:R:3:forces:R:3 energy=-4214.924447958295
C 0.008233 -0.420492 0.355221 -1.600377 -1.343809 -1.121811
C -1.117066 0.634194 0.347939 -0.698014 -0.080069 -2.095173
O 1.049502 -0.180050 -0.587729 0.671548 0.626972 0.607664
H 0.404662 -0.383602 1.404048 0.089356 -0.701577 -0.787175
H -0.458807 -1.432626 0.000897 0.633033 1.115271 1.398228
H -2.086746 0.199846 0.687600 0.591539 0.385711 0.357183
H -0.725168 1.435599 0.925957 -0.260804 1.124351 0.976865
H -1.375273 1.123681 -0.671824 0.635963 -1.029991 1.073691
H 0.794173 -0.632887 -1.396364 -0.061796 -0.099268 -0.419660
9
Properties=species:S:1:pos:R:3:forces:R:3 energy=-4214.835176191359
C -0.360509 -0.276319 -0.294165 -4.614532 -0.384575 -1.906584
C -0.647548 0.483575 0.966315 -1.700126 -0.123919 0.542221
O 0.916011 -0.241114 -0.634365 4.244665 -0.337641 -0.767719
H -0.653675 -1.341318 -0.319575 -0.283422 -0.008682 0.525856
H -0.955517 0.162345 -1.219651 0.168052 -0.332085 1.533327
H -1.761052 0.480527 1.269745 1.330349 0.384724 -0.750206
H -0.177312 0.000301 1.835469 0.478843 0.292197 -0.057816
H -0.261115 1.501916 0.733503 -0.376207 -0.108034 0.814721
H 1.279603 0.552338 -0.239391 0.746968 0.623760 0.064648
9
Properties=species:S:1:pos:R:3:forces:R:3 energy=-4214.994976041247
C 0.347328 -0.000712 -0.484731 -0.919527 0.262080 -0.681282
C -0.681553 1.125059 -0.144928 3.366442 0.892308 -0.020198
O 0.260999 -1.058541 0.533800 1.265419 1.015092 -0.195817
H -0.058079 -0.451669 -1.436939 0.801695 0.002144 0.601784
H 1.392764 0.429417 -0.656371 -1.000132 -0.733647 0.256811
H -1.555380 0.621642 0.149163 -1.751395 -0.150749 0.166246
H -0.241712 1.703393 0.678159 -0.292763 -0.231783 0.731676
H -0.682490 1.952083 -0.885572 -0.732343 -0.782026 -0.411012
H 0.983630 -0.851577 1.181430 -0.737380 -0.277233 -0.443970
9
Properties=species:S:1:pos:R:3:forces:R:3 energy=-4214.610301243129
C 0.165848 -0.071131 -0.616955 1.623556 0.247887 0.390398
C -1.260023 -0.188664 -0.149745 1.424398 -2.263881 1.578737
O 0.997802 0.183038 0.667152 -0.285154 2.386620 -1.509487
H 0.608254 -1.017169 -0.975676 -0.153132 0.157356 0.016097
H 0.349607 0.701222 -1.442009 -0.165066 -0.584302 1.162710
H -1.130153 0.218817 0.837239 -0.789931 0.319157 0.849188
H -1.995963 0.284515 -0.657551 -2.194522 2.141872 -1.996623
H -1.682264 -1.211921 -0.017801 0.736986 0.126247 -0.037232
H 1.049346 1.213362 0.801920 -0.199693 -2.524169 -0.456074
9
Properties=species:S:1:pos:R:3:forces:R:3 energy=-4214.506615776167
C -0.308080 0.215601 0.459392 -2.543479 -1.749955 -1.961674
C 0.045876 1.022973 -0.761426 -2.000273 1.544867 -3.106554
O 0.286111 -1.132756 0.366425 2.121042 2.462570 3.102134
H -0.046169 0.850897 1.306206 0.162700 -0.840974 0.773102
H -1.479385 -0.076799 0.427640 2.078133 1.399778 0.443888
H 0.944362 1.585745 -0.830157 1.550967 0.342159 0.916924
H 0.077179 0.534784 -1.778211 -0.243910 -0.607800 0.971380
H -0.697295 1.868475 -1.057785 0.465449 -1.100101 1.042331
H -0.216770 -1.542919 -0.285025 -1.592387 -1.447688 -2.182072
9
Properties=species:S:1:pos:R:3:forces:R:3 energy=-4214.717134943888
C -0.133535 -0.511797 0.236241 0.724322 0.065036 -0.353516
C -1.064816 0.710468 0.412034 1.456318 -2.592598 0.017679
O 1.109407 -0.208921 -0.577767 -1.701596 -0.751924 1.013872
H 0.268493 -0.650396 1.273895 -0.186939 -0.736214 -0.777006
H -0.772642 -1.396893 -0.124625 1.332889 0.683173 0.121188
H -1.817382 0.216990 0.997003 -1.226470 0.362124 0.431252
H -0.425771 1.259934 1.055911 -0.003611 1.981954 0.339398
H -1.402974 1.058307 -0.541104 -0.386478 0.860082 -0.482667
H 0.818920 0.459450 -1.214871 -0.011003 0.132929 -0.312333
9
Properties=species:S:1:pos:R:3:forces:R:3 energy=-4214.872646939467
C -0.283819 -0.484887 0.239259 -0.764788 0.313983 -1.401238
C -0.888792 0.928312 0.012802 2.394300 0.588703 0.101115
O 1.064263 -0.470348 -0.193568 0.811224 -1.577447 1.487728
H -0.349272 -0.773596 1.308833 -0.029482 0.023875 -0.358401
H -0.745830 -1.223725 -0.438075 -0.676406 -0.215558 0.545189
H -1.906839 0.945632 0.337741 -0.823419 0.452898 0.740834
H -0.114337 1.562891 0.625080 -1.863234 -0.344259 -0.735920
H -0.899255 1.367950 -1.051896 0.283161 -1.046261 1.070321
H 1.094044 0.301465 -0.712693 0.669980 1.807945 -1.449948
9
Properties=species:S:1:pos:R:3:forces:R:3 energy=-4214.693702858927
C -0.233823 0.191233 0.467846 -3.733769 -0.073217 -0.329865
C -0.029972 1.047939 -0.796483 1.370789 1.792675 0.072665
O 0.216498 -1.130880 0.285837 -0.550181 0.268161 -2.564679
H 0.136286 0.627316 1.383928 0.507806 0.517566 0.342609
H -1.449713 0.118306 0.649919 2.366640 0.290615 -0.310271
H 1.029073 1.276856 -1.003868 0.474039 0.021810 0.806344
H -0.183333 0.612010 -1.754734 -1.193390 -1.296289 -0.739036
H -0.478385 2.090706 -0.897977 -0.093281 -1.218400 0.851452
H 0.651937 -1.541904 1.001598 0.848751 -0.302439 1.871204
9
Properties=species:S:1:pos:R:3:forces:R:3 energy=-4214.822649895623
C -0.404741 0.046643 -0.338811 -2.307131 1.750585 -0.853429
C -0.570003 0.234683 1.143390 -0.043703 2.650208 0.155166
O 0.895156 -0.236560 -0.707069 1.631016 -0.298318 -0.237570
H -1.020456 -0.817478 -0.692415 -0.406221 0.759498 0.074070
H -0.766334 1.110624 -0.819684 0.464345 -2.271991 0.512977
H -1.617267 0.684891 1.373852 1.738566 -0.772243 -0.063702
H -0.302057 -0.604852 1.706001 -0.332138 -2.112442 0.947729
H 0.279951 0.895960 1.507848 -1.077871 0.237985 -0.462926
H 0.831158 -0.867942 -1.439473 0.329952 0.056948 -0.074707
9
Properties=species:S:1:pos:R:3:forces:R:3 energy=-4215.031660755898
C 0.335102 0.491960 -0.192280 0.149894 0.207055 2.464259
C -0.980635 0.067803 -0.769813 0.459629 0.763909 -2.161092
O 0.539974 -0.508311 0.858460 -1.827185 -0.222126 -1.075981
H 1.170860 0.423720 -0.889101 0.082150 0.135525 -0.513465
H 0.378158 1.500607 0.307864 -0.300859 -0.383233 -0.499899
H -1.516479 0.910938 -1.292849 0.555240 -0.784110 0.005367
H -0.614245 -0.730888 -1.457501 -1.149890 0.235971 -0.102334
H -1.674506 -0.344911 -0.065592 -0.243312 -0.294620 0.839802
H 1.376232 -0.362550 1.234913 2.274101 0.341410 1.044861
9
Properties=species:S:1:pos:R:3:forces:R:3 energy=-4214.797975581002
C 0.348597 0.331882 0.466710 -0.618398 1.349049 -2.234181
C -0.498508 0.860322 -0.797537 0.907567 -1.788025 -0.898980
O 0.122824 -1.063844 0.297529 0.076339 0.084749 0.343706
H 1.435980 0.672664 0.301085 -1.088941 -0.624583 0.528583
H -0.084503 0.804239 1.424340 0.541961 -0.778515 -0.957409
H -0.033705 0.616953 -1.897864 -0.578962 0.745946 2.698828
H -1.439772 0.261118 -0.804867 0.321890 0.378389 0.169960
H -0.752802 1.888950 -0.663399 -0.121578 1.099121 -0.269877
H 0.710529 -1.565047 0.860085 0.563457 -0.464356 0.620687
9
Properties=species:S:1:pos:R:3:forces:R:3 energy=-4214.839072458928
C 0.488216 -0.336425 -0.123168 -1.187070 1.269179 0.384612
C 0.210328 1.098314 -0.687534 -1.045711 0.277369 0.251938
O -0.645846 -0.721577 0.675365 -0.885284 -0.899886 -1.670006
H 0.709545 -1.116195 -0.823265 -0.119253 -0.518777 -0.996141
H 1.288753 -0.365799 0.586877 1.324349 0.539677 0.240490
H -0.454912 1.574085 0.177959 1.455388 -0.402444 -1.853585
H 1.164904 1.644646 -0.876108 -0.502314 -0.037763 0.312281
H -0.391816 1.170167 -1.684209 0.771391 -0.486216 1.629796
H -0.389626 -0.533273 1.558824 0.185329 0.258775 1.703076
9
Properties=species:S:1:pos:R:3:forces:R:3 energy=-4214.702254617746
C 0.465827 -0.303516 0.115344 1.898444 -0.189306 1.857255
C 0.389907 1.256250 0.081701 0.287257 -0.954165 -1.035911
O -0.801145 -0.846148 -0.133019 -0.975566 0.810260 3.511791
H 1.184086 -0.839634 -0.565191 -0.171315 1.096091 -0.140192
H 0.951616 -0.638176 1.119119 -1.267759 0.284658 -0.835517
H 0.639479 1.757583 1.018849 0.268860 -0.118836 0.177641
H 1.137491 1.505845 -0.713653 -0.838191 0.761611 0.362878
H -0.686550 1.495531 -0.134968 0.973065 0.084337 -0.311395
H -0.707242 -1.204308 -0.960690 -0.176891 -1.775475 -3.580260
9
Properties=species:S:1:pos:R:3:forces:R:3 energy=-4215.113106247978
C -0.068293 -0.506611 0.239374 0.725257 -0.498822 1.157810
C -1.173106 0.533250 0.237809 2.697378 -0.429503 -0.650235
O 1.088900 0.004425 -0.459495 -1.188810 0.763102 -0.425485
H 0.272181 -0.701478 1.287392 -0.398328 0.130034 -0.118125
H -0.363878 -1.500536 -0.118718 -0.224063 -0.081748 -0.532579
H -2.016675 0.285919 0.760415 -2.402590 -1.242490 1.432138
H -0.750024 1.344677 0.772268 0.396984 1.511497 0.317726
H -1.434247 0.800298 -0.752118 -0.311231 0.524249 -1.304589
H 1.799754 -0.618065 -0.341660 0.705824 -0.673574 0.123139
9
Properties=species:S:1:pos:R:3:forces:R:3 energy=-4214.906041231506
C -0.578427 0.003669 0.189980 0.194381 -1.643496 -0.156929
C -0.022048 0.962316 -0.857420 -0.317288 -0.514112 -0.681184
O 0.501247 -0.933686 0.582414 -0.614532 0.975628 0.088734
H -0.791923 0.613173 1.029789 -0.505741 0.619983 1.432198
H -1.532433 -0.588756 0.037751 1.116801 0.333508 -0.546789
H 0.943098 0.525805 -1.232221 -0.664493 0.552302 0.098173
H -0.703284 1.145238 -1.715610 0.281294 -0.016167 0.260159
H 0.114074 1.888945 -0.297206 0.465008 0.462107 -0.495884
H 1.168315 -0.275933 0.885914 0.048347 -0.767360 0.005435
9
Properties=species:S:1:pos:R:3:forces:R:3 energy=-4214.820932829915
C 0.316732 -0.367396 -0.096203 3.139934 -1.229400 1.039221
C 0.415921 0.909779 -0.902305 -1.655916 -0.431762 -0.740603
O -0.694235 -0.488797 0.871953 -1.221780 0.590594 0.084144
H 0.037561 -1.162326 -0.757154 0.383747 -0.894080 -0.863045
H 1.409660 -0.599297 0.380786 -2.205762 0.161814 -0.954160
H -0.515730 1.454199 -0.610343 0.618040 0.275424 -0.594776
H 1.315681 1.456497 -0.721460 0.602765 0.772561 0.354868
H 0.407658 0.627137 -2.000980 -0.183750 0.527614 0.951814
H -0.366318 -0.481941 1.766634 0.527104 0.226056 0.723908
9
Properties=species:S:1:pos:R:3:forces:R:3 energy=-4214.808016397426
C -0.515226 -0.125927 -0.204454 -1.775805 0.363480 1.099181
C 0.185132 1.176359 -0.456984 -0.078694 2.451820 -1.813735
O 0.257606 -0.948347 0.660343 1.773555 -1.750605 -1.757575
H -1.445733 -0.084294 0.403684 -0.102741 0.577522 -0.646708
H -0.777445 -0.546194 -1.199543 0.197053 -0.426354 0.390553
H -0.161270 1.647020 -1.482794 0.695391 -0.988762 1.449378
H 0.093216 2.111081 0.214980 0.187113 -1.798085 -0.188633
H 1.234954 0.821407 -0.557581 -0.059933 0.929651 -0.081419
H 0.899654 -1.414095 0.021137 -0.836349 0.644513 1.547767
9
Properties=species:S:1:pos:R:3:forces:R:3 energy=-4214.860987656514
C -0.074000 -0.493348 0.171867 0.581838 -0.114791 1.969164
C -1.018509 -0.008142 -0.911224 2.633988 0.253075 -1.287879
O 0.974455 0.471368 0.626344 -1.241840 0.204258 -1.041721
H -0.752585 -0.681827 1.105569 1.311239 -0.547115 -1.312629
H 0.566678 -1.332379 -0.210703 -0.990430 -0.096159 0.520293
H -0.418696 0.759458 -1.518069 -0.924682 -0.798135 0.420602
H -1.180044 -0.910604 -1.567832 -0.551571 0.982469 0.444879
H -1.866780 0.462941 -0.460143 -0.953395 0.233276 -0.131302
H 1.200985 0.194522 1.519246 0.131210 -0.114265 0.426903
9
Properties=species:S:1:pos:R:3:forces:R:3 energy=-4214.669030534290
C 0.200926 -0.417982 -0.324550 -1.805575 3.532361 0.234366
C -1.320480 0.103337 -0.404793 2.209302 2.283821 3.728049
O 1.051397 0.213463 0.656769 -0.813868 0.877105 -0.267046
H 0.204043 -1.370570 0.038657 -0.066590 -3.292703 0.012913
H 0.544005 -0.168149 -1.288461 1.205470 -0.617515 -1.655066
H -1.414122 1.263871 -0.620576 0.291571 -2.132992 0.181576
H -1.877471 -0.469177 -1.075357 -1.113181 -1.020542 -1.284259
H -1.647029 -0.055826 0.682469 -0.368883 0.288093 -1.332379
H 0.841075 1.159300 0.529060 0.457576 0.085412 0.375609
9
Properties=species:S:1:pos:R:3:forces:R:3 energy=-4214.879403863224
C 0.517312 0.114568 -0.306300 -0.424654 -0.579047 -0.150639
C -0.670615 1.094866 -0.199712 -2.143442 -2.055723 -0.699277
O 0.189285 -1.035944 0.496361 0.081966 -0.234988 1.120611
H 0.605025 -0.339769 -1.332137 0.551917 1.224660 0.332024
H 1.457565 0.563665 0.131536 -0.525939 -0.429558 -0.710750
H -1.555100 0.543628 -0.738508 1.240780 0.854264 0.503694
H -1.093594 1.043615 0.856604 0.910676 0.890327 -0.874713
H -0.584098 2.054139 -0.746735 0.200370 -0.059458 0.752253
H -0.008615 -1.834589 -0.019986 0.105558 0.381991 -0.275817
9
Properties=species:S:1:pos:R:3:forces:R:3 energy=-4214.623140116264
C 0.315850 0.487551 0.202601 -2.259461 1.465288 1.961074
C -1.108958 -0.106870 0.671299 0.813843 0.887312 3.643650
O 0.784644 -0.346733 -0.795255 0.638072 0.155623 -1.472568
H 0.231996 1.716363 0.000353 0.301531 -2.868256 0.029319
H 0.968763 0.346409 1.100665 -0.012914 0.352002 -0.734042
H -1.822778 0.649167 1.132434 0.642329 -0.378334 -0.833726
H -1.606499 -0.683269 -0.070627 -0.487537 -0.470104 -1.006082
H -0.964183 -0.814381 1.618321 0.008421 0.969811 -1.937224
H 0.187515 -0.248207 -1.571240 0.350876 -0.114839 0.346597
9
Properties=species:S:1:pos:R:3:forces:R:3 energy=-4214.698286310777
C -0.004532 -0.000844 0.497407 1.065561 4.100996 0.094953
C -1.278591 0.571959 -0.264623 4.798430 -1.981324 -1.896894
O 1.167097 -0.476960 -0.213153 -1.210910 0.712482 -0.114347
H 0.377633 0.907593 1.061376 -0.139439 -0.836675 -0.191508
H -0.243281 -0.706966 1.215725 -0.900910 -1.738696 1.672726
H -1.918930 0.928624 0.460163 -1.861055 0.839225 1.353399
H -0.793360 1.323323 -0.930723 -0.954556 -0.076485 0.193643
H -1.539269 -0.312682 -0.839374 -1.230430 0.151779 -0.450823
H 0.880276 -1.375881 -0.357597 0.426818 -1.177580 -0.653332
9
Properties=species:S:1:pos:R:3:forces:R:3 energy=-4214.850144256770
C 0.348282 -0.298012 -0.168138 1.805715 -2.176992 -2.009323
C 0.244125 1.069675 -0.666127 0.313515 2.874576 -0.994954
O -0.579116 -0.773667 0.762443 -0.702719 0.842276 0.802014
H 0.379161 -0.876932 -1.181265 -0.724723 -0.085421 1.694436
H 1.396517 -0.509617 0.180826 -0.400785 0.360119 0.219522
H 0.208802 1.908079 0.056310 -0.396490 -0.313140 0.289411
H 1.214491 1.269521 -1.122869 0.510671 0.043512 -0.298804
H -0.436414 1.321084 -1.519874 -0.222955 -0.542881 0.821406
H -0.630192 -0.028133 1.425511 -0.185127 -1.003212 -0.523624
9
Properties=species:S:1:pos:R:3:forces:R:3 energy=-4214.651451150614
C -0.249052 -0.521732 -0.030680 -1.482688 3.888828 -3.698729
C -0.924151 0.707573 0.708350 2.237281 0.440115 -0.874292
O 1.094716 -0.260613 -0.563486 -0.255335 -0.787689 1.357879
H -0.349897 -1.488596 0.418613 0.291317 -0.645352 0.346160
H -0.902371 -0.387460 -1.032928 0.735378 -1.436618 1.816095
H -1.980182 0.562755 0.741269 -1.059281 0.014107 -0.034735
H -0.562207 1.017478 1.671374 0.353618 -0.560853 1.193150
H -0.641873 1.659042 0.153177 -0.700075 -0.959232 -0.135179
H 1.038693 0.557590 -1.082263 -0.123890 0.051576 0.025744
9
Properties=species:S:1:pos:R:3:forces:R:3 energy=-4214.484631959152
C -0.171038 -0.074876 -0.398189 2.359800 -0.265750 -1.724246
C -0.154780 1.423162 -0.058256 0.850081 0.648053 2.120242
O 0.218578 -1.248990 0.439605 0.746750 1.573597 -0.313272
H -1.138555 -0.349249 -0.727071 -1.319889 -0.434392 -0.437935
H 0.495879 0.047055 -1.375136 -0.918998 -1.278339 1.481808
H -0.822942 1.830517 0.824028 0.524252 -0.715454 -1.983263
H 0.869609 1.683344 0.341024 -0.493269 -0.098919 -0.489457
H -0.205865 1.894537 -1.097663 -0.531327 0.037433 1.524517
H 1.213790 -1.348324 0.495840 -1.219990 0.533396 -0.180640
9
Properties=species:S:1:pos:R:3:forces:R:3 energy=-4215.009472790582
C -0.031587 -0.266815 0.498760 -2.564309 -0.425218 -0.107133
C -1.146871 0.741801 -0.099456 -0.176104 -1.978364 -0.427411
O 1.113358 -0.410450 -0.322674 0.662158 1.470818 1.398888
H 0.127836 0.138390 1.505232 1.060551 0.002848 -0.061786
H -0.421498 -1.307930 0.685357 -0.263068 0.697346 -0.134980
H -2.170459 0.740124 0.415943 1.341549 -0.235207 -0.404181
H -0.702383 1.706539 0.000038 0.216246 1.147220 -0.041551
H -1.302091 0.537408 -1.203644 0.022794 0.151996 0.951672
H 0.837484 -0.960773 -1.039153 -0.300197 -0.832984 -1.178110
9
Properties=species:S:1:pos:R:3:forces:R:3 energy=-4215.057656449520
C 0.199573 -0.341550 -0.434363 -1.679236 2.801237 1.245140
C -1.330738 0.077374 -0.200685 1.396758 -2.282751 -1.083971
O 1.059980 0.188396 0.571362 0.694721 -1.834305 0.249327
H 0.372935 -1.357662 -0.413615 -0.077975 -2.706817 0.180151
H 0.575463 -0.003711 -1.371005 0.005829 0.572834 -1.459008
H -1.485773 1.127095 -0.158385 0.031964 1.364489 -0.441171
H -1.920700 -0.400690 -1.028564 0.121302 0.530868 0.593543
H -1.689521 -0.283794 0.757297 -0.056670 -0.512109 0.356408
H 0.800221 1.074737 0.712120 -0.435215 2.068253 0.359517
9
Properties=species:S:1:pos:R:3:forces:R:3 energy=-4214.914207693531
C -0.371623 -0.241801 -0.442475 1.294849 1.122721 -0.705044
C 0.116984 1.182858 -0.321021 -1.391018 1.747945 1.406038
O 0.171017 -0.851740 0.705986 0.728909 -1.770025 0.474649
H -1.465015 -0.352581 -0.403085 -0.007073 0.034197 -0.490567
H 0.141584 -0.560840 -1.399225 -1.048241 -0.578936 0.585162
H -0.444363 1.940961 -0.884361 -0.295897 -0.029594 0.030883
H 0.204889 1.506253 0.757590 -0.861834 -0.273714 -0.619133
H 1.120065 1.342226 -0.587039 1.836195 -0.359805 -1.000082
H 0.761534 -1.571254 0.407629 -0.246027 0.103798 0.316248
9
Properties=species:S:1:pos:R:3:forces:R:3 energy=-4214.892556993743
C -0.345615 0.185567 0.415874 -2.076643 -1.301079 -1.521007
C 0.078357 1.076797 -0.762826 1.409348 -0.829775 -0.820764
O 0.289895 -1.138858 0.332970 -0.353345 0.554571 0.410017
H -0.144629 0.735791 1.337331 0.266841 -0.231064 0.445609
H -1.488368 -0.090609 0.415666 1.574817 1.100211 -0.115715
H 1.031115 1.577303 -0.535489 0.260097 -0.301495 0.050134
H 0.191601 0.668594 -1.816260 -0.074463 -0.545918 1.279139
H -0.539765 1.896526 -0.976577 -1.654686 1.437498 0.289960
H -0.467884 -1.754034 0.424288 0.637450 0.113659 -0.018949
9
Properties=species:S:1:pos:R:3:forces:R:3 energy=-4214.656346999863
C 0.228767 0.059449 -0.489808 1.765715 -3.238423 1.617447
C -0.692926 1.115504 -0.160936 -0.830954 -0.582597 2.075343
O 0.355811 -1.086938 0.558400 -2.001553 0.854328 -2.400220
H 0.007933 -0.380508 -1.445714 -0.064492 -0.835996 -0.559625
H 1.199955 0.524517 -0.544339 0.897811 -0.014411 -0.188979
H -1.754257 0.852435 -0.192288 -0.030194 0.230118 -0.072226
H -0.350726 1.423176 0.826719 -0.579249 0.665342 0.406056
H -0.333270 1.790906 -0.864762 -0.360009 2.327771 -1.441658
H 1.112425 -0.959493 1.111015 1.208910 0.597355 0.564555
9
Properties=species:S:1:pos:R:3:forces:R:3 energy=-4214.987817040836
C -0.173024 -0.430533 0.256715 -2.423730 -0.437603 -0.543907
C -1.004428 0.850609 0.088842 1.595387 1.281249 -1.020772
O 1.093420 -0.448589 -0.279892 1.935954 0.683633 -1.027271
H -0.039194 -0.503753 1.331324 -0.184599 -0.864708 0.530436
H -0.746951 -1.307330 -0.257913 0.379102 0.973808 1.349049
H -1.803548 0.929296 0.764839 -1.355909 -0.397325 1.450798
H -0.408300 1.801239 0.336553 -0.370365 -1.103421 -0.582410
H -1.510560 0.952597 -0.883704 0.475996 0.077766 -0.258293
H 1.181915 0.241406 -0.965953 -0.054316 -0.210806 0.100715
9
Properties=species:S:1:pos:R:3:forces:R:3 energy=-4214.902245363101
C -0.023522 -0.545225 0.269896 -1.381349 1.066811 -3.255023
C -1.209642 0.544837 0.334173 -0.092740 -1.602557 1.795445
O 1.135723 -0.059212 -0.571995 -1.987523 -3.547290 0.134922
H 0.312436 -0.802826 1.245367 0.370874 -0.395374 1.085141
H -0.453054 -1.450966 -0.300449 0.926071 1.027491 0.838723
H -2.188281 0.076892 0.828848 1.777365 0.690546 -1.233610
H -0.911716 1.308743 1.079918 -0.051807 0.135586 -0.404724
H -1.414262 0.999850 -0.644166 -0.070212 -0.172878 0.090580
H 1.320628 0.811332 -0.328176 0.504998 2.791297 0.951564
9
Properties=species:S:1:pos:R:3:forces:R:3 energy=-4215.034864559231
C -0.128642 -0.163629 -0.540820 0.269871 1.228780 -1.766515
C -0.133879 1.265442 0.011027 -1.084911 -0.064165 -1.610717
O 0.190778 -1.027019 0.466713 0.592933 -2.326841 2.290501
H -1.100520 -0.502296 -1.036208 0.859036 0.373705 0.829438
H 0.655384 -0.216917 -1.319196 -0.162608 -0.025112 -0.452944
H -0.673632 1.144586 0.949412 0.231307 0.703545 0.529400
H 0.898729 1.637473 0.020749 -0.092272 0.096339 0.650846
H -0.711634 1.937805 -0.672971 0.263200 -0.184685 0.448369
H 1.030604 -0.829210 0.962975 -0.876548 0.199460 -0.915554
9
Properties=species:S:1:pos:R:3:forces:R:3 energy=-4214.733720185839
C 0.332238 0.456105 0.125236 0.541083 -1.157830 2.366240
C -0.774347 0.546389 -0.857525 -1.800365 1.771875 0.985643
O 0.460612 -0.913854 0.625677 -1.259730 -1.033731 1.299639
H 1.351033 0.749619 -0.343296 -1.343349 -0.526505 0.917334
H 0.087754 1.021746 1.100317 0.639746 0.257457 -1.585877
H -0.806030 -0.258200 -1.588559 0.061485 -0.119297 -0.165788
H -1.811721 0.704588 -0.316630 1.690786 -0.557327 -1.073211
H -0.509954 1.513427 -1.292899 -0.693042 0.278435 -0.928695
H -0.355328 -1.172558 1.235499 2.161662 1.088271 -1.810985
9
Properties=species:S:1:pos:R:3:forces:R:3 energy=-4215.038867905909
C 0.390433 0.172192 0.367854 1.597267 -1.518637 0.573443
C 0.204059 0.889655 -0.956511 0.251885 1.291559 0.767191
O -0.539638 -0.942607 0.602553 -0.286233 0.723123 -0.328741
H 1.429724 -0.368245 0.254290 -1.247650 1.139041 0.633146
H 0.371170 0.830027 1.307237 0.014062 -0.834103 -1.164810
H 1.149804 1.430017 -1.255384 -0.762537 -0.414981 0.271267
H 0.046350 0.081683 -1.641659 -0.272584 -0.337733 -1.151680
H -0.634170 1.626704 -0.957587 0.278511 -0.516883 -0.130307
H -0.882009 -1.292397 -0.256961 0.429961 0.464674 0.528516
9
Properties=species:S:1:pos:R:3:forces:R:3 energy=-4214.714990611737
C 0.507958 0.247619 -0.020343 -0.161524 -1.274199 -2.205492
C -0.803723 0.987405 -0.473308 -0.709153 -5.208657 -0.425767
O 0.291263 -1.116170 0.398445 -0.396963 -0.344516 2.177552
H 1.274787 0.032712 -0.893629 -1.250600 1.150120 1.418468
H 0.901348 0.870276 0.750494 1.040701 0.338225 0.853813
H -0.927140 0.945452 -1.556985 -0.116665 0.060405 -0.182880
H -1.715303 0.413899 -0.006214 1.463378 1.057571 -0.686525
H -0.770359 1.936387 -0.143509 -0.110841 3.699619 1.153950
H 0.136711 -1.199507 1.407568 0.242678 0.521905 -2.099183
9
Properties=species:S:1:pos:R:3:forces:R:3 energy=-4214.698710217248
C 0.069302 -0.535358 -0.049076 -1.463298 -1.940904 0.435496
C -1.099644 0.113865 0.699728 -1.863794 1.944964 -3.650500
O 0.953955 0.352283 -0.636566 0.872069 0.216123 -0.204538
H 0.339557 -1.221039 0.773815 1.865534 -0.112862 -0.166023
H -0.175284 -1.256428 -0.873446 -0.444947 0.607974 0.423030
H -1.329085 -0.386398 1.608796 -0.287108 -0.295457 1.050111
H -0.849439 1.225041 0.824298 -0.483871 -1.236340 0.225987
H -2.047502 0.076130 -0.023769 1.462488 0.334714 1.610297
H 1.195921 0.991825 0.041512 0.340674 0.486902 0.278473
9
Properties=species:S:1:pos:R:3:forces:R:3 energy=-4214.730864709607
C 0.170265 0.522799 -0.324465 0.325751 -1.905644 -0.108010
C -1.358399 -0.011978 -0.236421 1.026681 1.226030 -0.754301
O 1.083608 -0.401464 0.552203 -1.595487 2.398070 -1.053701
H 0.533183 0.458354 -1.425970 -0.356747 0.295985 1.603797
H 0.400746 1.503029 0.116517 -0.489287 -0.008401 -0.210048
H -2.147919 0.797013 -0.560562 1.322479 -1.216640 1.171590
H -1.499378 -0.811071 -0.990800 0.202412 0.054410 0.215722
H -1.402003 -0.486080 0.770455 -0.714732 0.640806 -0.352829
H 1.071767 -1.177139 0.008607 0.278421 -1.485258 -0.519166
9
Properties=species:S:1:pos:R:3:forces:R:3 energy=-4214.744656274811
C -0.353985 0.164723 0.427334 -1.637176 1.213700 -0.578248
C 0.047269 1.038103 -0.794658 -1.530757 0.886881 -1.217430
O 0.294526 -1.097046 0.400127 1.439268 1.854085 3.943607
H -0.109909 0.895913 1.332241 0.041784 -2.240741 -1.085941
H -1.497853 -0.038704 0.492995 1.370099 0.642286 -0.182404
H 1.138091 1.036292 -0.894349 0.133020 0.369397 0.239659
H -0.323897 0.717547 -1.829449 0.167087 -0.264697 1.213220
H -0.400490 2.110963 -0.744091 0.944020 -1.405898 0.304547