9
Properties=species:S:1:pos:R:3:forces:R:3 energy=-4215.013847034173
C 0.078551 -0.080806 -0.506670 1.549327 0.441718 0.636387
C 0.550425 1.250579 0.181724 -0.283631 0.023940 -0.171976
O -0.640368 -1.055455 0.282069 0.476094 0.082350 0.193173
H -0.508560 0.320390 -1.335486 -0.507512 -0.791060 -0.319135
H 0.992218 -0.590072 -0.874596 -0.243290 0.217296 -0.370840
H 1.147324 1.101670 1.096644 -0.721129 -0.118859 0.433117
H 1.359306 1.716967 -0.440698 -0.905173 -0.051935 -0.242681
H -0.358141 1.942625 0.284105 1.399468 -0.633397 0.264736
H 0.036718 -1.678568 0.664740 -0.767467 0.827499 -0.421064
9
Properties=species:S:1:pos:R:3:forces:R:3 energy=-4215.171235844130
C 0.146879 0.080906 -0.588235 0.649076 -0.665930 1.215430
C -1.211968 -0.325862 -0.079147 -0.380127 1.123131 0.234478
O 0.998046 0.269065 0.562732 0.450231 -0.163571 0.631589
H 0.504827 -0.777583 -1.177513 0.316949 0.040854 -0.324842
H 0.278263 1.000077 -1.188666 -0.527719 -0.143143 0.162515
H -1.696486 0.474756 0.532847 0.445907 -0.487512 0.040909
H -1.862494 -0.418551 -0.925213 -0.803084 -0.642586 -0.708467
H -1.108332 -1.278002 0.485260 -0.310797 0.356951 -0.247089
H 0.732562 -0.354254 1.293416 0.160194 0.579623 -1.002332
9
Properties=species:S:1:pos:R:3:forces:R:3 energy=-4214.649208939277
C -0.395069 0.178410 0.449773 -0.685055 -1.558007 1.941934
C 0.131956 1.031810 -0.643471 -1.224580 2.328731 -0.266341
O 0.181768 -1.109778 0.205179 -0.164868 -0.776880 0.609697
H 0.013900 0.608021 1.393063 -0.388670 -0.254562 0.185858
H -1.525490 -0.138939 0.676608 1.840755 1.489918 -1.051251
H 1.262118 1.155023 -0.568434 -1.224440 0.414796 0.319452
H -0.006693 0.460398 -1.533407 -0.407167 -0.170925 -1.352269
H -0.508886 2.007232 -0.689786 1.568387 -1.118701 -0.199503
H 1.014073 -0.898397 -0.226805 0.685799 -0.353079 -0.191697
9
Properties=species:S:1:pos:R:3:forces:R:3 energy=-4214.528563543483
C 0.136075 -0.364565 -0.379040 0.777211 -3.131704 1.895074
C -1.299502 0.162652 -0.332923 1.516697 -0.407436 -3.518011
O 1.067588 0.152042 0.671797 -1.283679 1.480158 -1.396998
H 0.075140 -1.565912 -0.098760 0.393262 2.667718 -0.862016
H 0.595194 -0.269675 -1.404070 -0.295883 0.070739 0.744589
H -1.162347 1.289219 -0.358844 -1.099801 -0.928124 -0.373896
H -1.684876 -0.418618 -1.339549 0.207101 2.084633 1.944214
H -1.906305 -0.205831 0.451846 -0.498861 -0.173267 1.266749
H 0.999489 1.161912 0.569508 0.280901 -1.664266 0.301401
9
Properties=species:S:1:pos:R:3:forces:R:3 energy=-4214.562893637732
C 0.094069 0.576752 0.176598 0.183399 -1.629816 -2.374870
C -1.287352 0.052766 -0.346588 0.274148 1.179260 -0.110469
O 1.112170 -0.538907 0.207399 -1.308779 1.197250 -0.210579
H 0.377609 1.239064 -0.635399 0.852225 1.210130 0.586713
H -0.014434 0.917417 1.195668 0.271306 0.531787 0.212028
H -1.151801 -0.912545 0.032617 -0.938739 -2.327101 0.225943
H -1.995776 0.568571 0.277525 -0.972569 0.155274 0.247957
H -1.669136 0.108923 -1.431118 1.239020 -0.025617 1.303949
H 1.017927 -0.870054 -0.705800 0.399990 -0.294474 0.117320
9
Properties=species:S:1:pos:R:3:forces:R:3 energy=-4214.979871836968
C 0.046985 -0.546614 0.000602 3.029665 1.345209 0.389414
C -0.897049 0.064897 -0.950087 -0.402152 0.603513 -0.630030
O 0.732546 0.473263 0.848534 0.384934 -1.274949 0.618789
H -0.444433 -1.219607 0.638629 -0.777727 -1.398528 1.050031
H 0.944213 -1.010655 -0.452790 -0.668285 -0.492091 -0.533098
H -0.659417 1.124331 -1.181549 -0.168131 -0.357329 0.234791
H -0.843730 -0.485021 -1.878905 -0.009340 -0.229169 -0.687654
H -1.916322 -0.076561 -0.593547 -0.356278 0.497677 0.084620
H 1.420176 -0.106082 1.313207 -1.035621 1.302899 -0.522168
9
Properties=species:S:1:pos:R:3:forces:R:3 energy=-4214.977652485441
C 0.171491 -0.147342 -0.484246 0.742208 1.180040 -1.275489
C -0.400455 1.209553 -0.184391 -0.819281 -0.302856 -0.782965
O 0.248915 -0.987860 0.579892 -0.064528 -1.628866 3.785358
H -0.351304 -0.654820 -1.245439 -1.581967 -0.601665 -1.434848
H 1.167297 -0.076526 -1.002415 -0.004086 0.271012 0.827101
H -0.535507 1.739174 -1.156526 0.331972 0.253296 0.668179
H -1.423397 1.104644 0.240311 0.304663 0.045424 0.002463
H 0.251965 1.679594 0.541841 0.144992 0.761460 0.104749
H -0.332794 -0.770295 1.384922 0.943099 0.020961 -1.894414
9
Properties=species:S:1:pos:R:3:forces:R:3 energy=-4214.638589147673
C 0.128563 0.418867 0.371340 -2.475609 -0.058122 0.082845
C -0.818212 0.636498 -0.823839 0.214215 -0.833275 1.323549
O 0.636913 -0.955508 0.377451 0.379881 0.278884 3.193033
H 0.823613 1.211394 0.147550 1.397178 0.214340 0.977860
H -0.592436 0.632987 1.222056 1.424478 -0.156045 -0.012078
H -1.102596 1.667460 -0.997097 -0.355610 0.403831 0.432482
H -0.250328 0.367050 -1.645143 1.123961 -0.752299 -2.359620
H -1.621927 -0.068338 -0.726906 -1.017852 -0.173307 -0.197272
H 0.850651 -1.220742 1.400143 -0.688391 1.073691 -3.443111
9
Properties=species:S:1:pos:R:3:forces:R:3 energy=-4214.993836710731
C -0.158778 0.052996 -0.520688 0.730869 -1.051531 0.331562
C -1.056754 -0.584224 0.544841 0.653683 -1.476248 0.028628
O 1.083965 0.478239 0.004147 1.437128 0.267370 0.959463
H 0.014209 -0.783102 -1.235825 -0.032467 0.603668 -0.348803
H -0.564586 0.930920 -0.951363 -1.281779 0.738261 -1.047411
H -1.812232 0.017965 1.024654 -0.534666 0.596481 -0.159244
H -1.493129 -1.470919 0.002837 -0.218206 0.668710 0.823671
H -0.479661 -1.002444 1.412310 0.044215 0.178273 -0.757242
H 1.612633 1.044982 -0.606263 -0.798201 -0.516216 0.166149
9
Properties=species:S:1:pos:R:3:forces:R:3 energy=-4215.018509015368
C 0.283564 0.377802 0.142151 0.274714 0.586404 0.826172
C -0.972358 0.673642 -0.706186 1.821835 -0.142033 -1.555307
O 0.683871 -0.968540 0.480424 1.221330 0.796199 -2.184412
H 1.177946 0.884810 -0.263547 -0.200469 -0.142910 -0.009371
H 0.080413 0.804971 1.142649 0.072358 0.597845 -0.176231
H -1.250573 1.678830 -0.457121 -0.355304 0.887717 0.178593
H -0.816779 0.664782 -1.831799 0.024306 -0.253222 1.054321
H -1.787543 0.038998 -0.478545 -1.109221 -0.934300 0.375888
H -0.052058 -1.228996 0.983499 -1.754815 -1.398548 1.490188
9
Properties=species:S:1:pos:R:3:forces:R:3 energy=-4214.685702425521
C -0.049335 -0.565131 0.206630 -0.625923 -0.135534 1.961274
C -1.089762 0.562550 0.277260 -0.267565 1.042741 -0.490907
O 1.041967 -0.058010 -0.498023 1.481248 1.912304 1.076601
H 0.243329 -0.855462 1.278771 -0.163708 0.566726 -0.652951
H -0.371308 -1.570552 -0.115124 -0.170554 0.453332 -1.004332
H -2.009343 0.167099 0.726035 -0.190176 0.308821 0.305231
H -0.628639 1.419225 0.976094 -1.146320 -1.456698 -1.494918
H -1.406884 0.989214 -0.795488 0.930962 -0.771669 2.135412
H 1.205907 0.800545 0.068941 0.155646 -1.913174 -1.833505
9
Properties=species:S:1:pos:R:3:forces:R:3 energy=-4214.711002434933
C -0.084323 -0.504520 0.215631 0.248982 -0.096714 -1.373309
C -1.181496 0.573001 0.308633 0.311513 -2.663428 2.925836
O 1.143262 -0.079726 -0.531346 0.462746 1.281969 3.193173
H 0.081600 -0.817310 1.273122 0.571574 -0.175150 -0.584334
H -0.354338 -1.369323 -0.433625 -0.394021 0.190661 0.709586
H -2.043766 0.039354 0.892866 1.446838 1.113331 0.103358
H -0.702533 1.424560 0.807771 -0.788501 0.316498 -0.009905
H -1.735220 0.725865 -0.537447 -0.703657 1.196420 -2.983355
H 1.689456 0.444856 0.184389 -1.160880 -1.162990 -1.985913
9
Properties=species:S:1:pos:R:3:forces:R:3 energy=-4214.567579428730
C -0.082553 -0.496581 0.213053 0.211376 -1.050431 -0.827891
C -1.137973 0.610327 0.385500 -1.043851 0.012612 -0.388700
O 1.096128 -0.093063 -0.542048 0.082920 0.408498 -0.698435
H 0.360435 -0.610965 1.158513 0.554693 0.050502 1.973034
H -0.411996 -1.578898 0.087592 -0.182802 1.140021 -0.866627
H -1.301526 0.730584 1.442398 -0.148857 -0.074607 0.902681
H -0.768469 1.582256 0.101715 0.725663 0.477530 -0.422872
H -2.187298 0.620160 -0.025838 0.908494 -0.847768 -0.286938
H 1.452519 -0.622827 -1.292668 -1.103701 -0.116859 0.615192
9
Properties=species:S:1:pos:R:3:forces:R:3 energy=-4214.392516545884
C 0.017208 0.526592 -0.210528 2.180392 -0.564169 2.366300
C -1.072141 0.051362 0.685034 -1.069381 -0.617299 -1.418958
O 0.997649 -0.485190 -0.477793 0.140870 -1.041831 -0.364421
H -0.322267 0.891397 -1.145399 -0.330918 1.098261 -0.952945
H 0.600285 1.162230 0.491950 -0.143543 1.026261 -1.197300
H -2.032251 0.254358 0.213701 -0.715658 -1.758595 -0.854637
H -0.819460 -0.896675 1.170086 -0.668938 -0.216278 -0.143440
H -1.322401 0.748363 1.397594 0.501499 1.903804 2.801267
H 0.629735 -1.346519 -0.198007 0.101032 0.171506 -0.234205
9
Properties=species:S:1:pos:R:3:forces:R:3 energy=-4214.701033867907
C 0.172438 0.460137 -0.389130 1.064471 -2.394060 -0.488293
C -1.253078 -0.022034 -0.243689 1.169230 -2.205062 -2.288321
O 0.972352 -0.341320 0.611203 0.461859 0.264108 -0.916746
H 0.698953 0.343737 -1.396740 -0.977653 0.121887 0.881709
H 0.146539 1.496543 -0.128829 0.737421 0.997769 0.486148
H -1.338406 -1.119217 -0.327051 0.514737 -0.171405 1.085551
H -1.685859 0.395958 0.586849 -1.147340 0.640162 2.490569
H -1.929955 0.103583 -1.044480 -0.745072 1.490468 -1.620777
H 1.550237 -1.024675 0.149136 -1.079011 1.258220 0.369040
9
Properties=species:S:1:pos:R:3:forces:R:3 energy=-4214.782230262060
C 0.046578 -0.318294 -0.554124 -0.132908 -2.078873 4.137916
C -1.272612 0.184952 0.114038 0.524949 -0.357025 -2.451190
O 1.084000 0.124088 0.420771 -0.519410 -0.092869 -1.208360
H 0.181219 -1.468662 -0.695627 -0.725326 1.385478 0.588259
H 0.103134 0.016603 -1.507173 0.859585 1.940054 -3.209343
H -1.642842 -0.571120 0.718417 -0.788025 -1.419618 1.815255
H -1.083907 1.086772 0.639700 0.451283 0.896069 0.832587
H -2.105241 0.425879 -0.567422 0.325000 -0.172932 -0.430441
H 1.949449 0.128241 -0.022860 0.009670 -0.103330 -0.074697
9
Properties=species:S:1:pos:R:3:forces:R:3 energy=-4214.882373918504
C 0.402010 0.174403 0.361883 1.131931 0.663125 -1.362459
C -0.209653 1.038122 -0.751612 1.459548 0.479345 3.124664
O -0.186223 -1.109479 0.317395 -0.456256 -0.101751 -0.331464
H 1.480870 0.103556 0.098799 0.050037 -0.167372 0.356573
H 0.342124 0.604724 1.375695 -0.196665 0.264573 -0.156817
H 0.396564 1.814307 -1.119956 1.639736 1.077271 -0.319671
H -0.493254 0.522464 -1.564998 -1.109561 -2.485179 -2.937996
H -1.013971 1.565481 -0.381610 -2.488379 1.049381 0.894878
H -0.049466 -1.449422 1.197995 -0.033824 -0.778754 0.732625
9
Properties=species:S:1:pos:R:3:forces:R:3 energy=-4214.629107046598
C 0.317126 -0.150412 0.524477 -0.177351 2.630998 -0.142199
C -1.226231 -0.337715 0.315358 1.644426 -0.603393 -0.247896
O 0.784503 0.431847 -0.742696 -2.332841 -0.769264 0.266466
H 0.575297 0.658472 1.353466 -0.685882 -1.549127 -1.112081
H 0.764443 -1.099643 0.816531 0.495830 -0.257289 -0.181062
H -1.413413 -1.389783 -0.021916 -0.341569 0.143011 1.621697
H -1.712542 0.208721 1.128550 -0.738491 -0.913482 0.086071
H -1.543035 0.062772 -0.626603 0.109912 1.434428 -0.686042
H 1.708537 0.519660 -0.868491 2.029623 -0.108537 0.395043
9
Properties=species:S:1:pos:R:3:forces:R:3 energy=-4214.944512451287
C -0.208542 -0.378547 0.381171 1.760955 0.256100 -2.154722
C -1.024446 0.817586 0.004143 0.075462 0.901425 1.751245
O 1.131788 -0.347176 -0.355779 -1.694246 0.016431 0.679086
H 0.034259 -0.454036 1.424007 -0.067959 0.018144 0.887224
H -0.823755 -1.195938 0.035769 0.115642 -1.123091 0.025081
H -1.838579 0.736074 0.745063 -0.298063 0.371357 -0.008960
H -0.459228 1.768342 0.313583 -0.864132 -0.848241 -1.180400
H -1.541269 0.702025 -0.969011 0.782758 0.622666 0.054914
H 1.354694 -1.278743 -0.493426 0.193902 -0.216329 -0.053852
9
Properties=species:S:1:pos:R:3:forces:R:3 energy=-4214.800312921547
C -0.224250 -0.219228 -0.460820 -1.401558 1.209010 -0.396805
C -0.226842 1.343392 -0.130609 1.507307 -1.345519 0.283757
O 0.355023 -1.061951 0.529043 -2.061413 -0.797830 -0.773525
H -1.277467 -0.701799 -0.461407 1.251600 1.143940 -0.586946
H 0.217853 -0.170678 -1.505203 -0.040073 -1.128001 0.768467
H -0.797630 1.552632 0.773889 0.135893 0.320100 0.234164
H 0.864961 1.630925 -0.070338 -0.653670 -0.290817 0.767003
H -0.475692 2.020072 -0.940708 -0.955278 -0.192505 -0.589821
H 1.206832 -0.871546 0.853581 2.215342 1.080181 0.294555
9
Properties=species:S:1:pos:R:3:forces:R:3 energy=-4214.773829111988
C -0.443771 0.239097 -0.428122 2.371230 -0.950809 3.392592
C -0.543124 0.125636 1.189237 -2.014533 1.919804 -1.597137
O 0.892999 -0.288749 -0.676696 0.067241 0.556381 0.224277
H -1.138852 -0.319184 -0.998334 -1.321519 -0.719785 -0.268701
H -0.494349 1.267237 -0.639830 -0.015892 1.718866 -0.863643
H -1.586883 0.356118 1.580510 1.084151 0.138884 -0.391625
H -0.376091 -0.853872 1.413503 0.274843 -3.358902 0.565131
H 0.241600 0.607605 1.792994 -0.145742 0.755354 -0.654915
H 0.938612 -0.822162 -1.476918 -0.303213 -0.065458 -0.413162
9
Properties=species:S:1:pos:R:3:forces:R:3 energy=-4214.590161460766
C -0.193379 -0.220248 -0.572646 -2.923666 -0.183875 3.351362
C -0.097006 1.180892 -0.141607 2.515679 1.603167 0.620472
O 0.236146 -0.842072 0.646136 0.145465 -0.945444 0.791368
H -1.272149 -0.388751 -0.775670 -0.010740 -0.665371 0.077448
H 0.327367 -0.592926 -1.360244 2.016503 -0.594111 -2.789707
H -0.676374 1.856537 -0.711238 -1.575047 0.894282 -0.318802
H -0.176877 1.246196 1.021196 -0.131162 0.125920 -2.119772
H 0.907448 1.530172 -0.480752 0.080980 0.035297 0.880169
H 0.601409 -1.733336 0.561462 -0.118028 -0.274159 -0.493809
9
Properties=species:S:1:pos:R:3:forces:R:3 energy=-4214.882012041516
C 0.057296 -0.400231 0.282802 -3.315882 -1.912284 2.738717
C -0.985493 0.744850 0.627033 1.724496 0.924861 -0.569880
O 0.834225 -0.359415 -0.864053 0.425251 1.044201 -0.313620
H 0.674088 -0.558028 1.170126 0.448099 0.145001 0.346245
H -0.618001 -1.346316 0.344780 1.157870 0.913629 -0.886157
H -1.851123 0.547308 1.276660 0.637274 -0.594748 0.544127
H -0.403210 1.653244 0.992961 -0.883782 -0.675214 -0.318496
H -1.501697 0.992107 -0.286223 -0.070346 0.519422 -0.900616
H 1.517468 0.308806 -0.624544 -0.121761 -0.362882 -0.643753
9
Properties=species:S:1:pos:R:3:forces:R:3 energy=-4214.821460225525
C -0.400063 -0.546201 -0.040652 3.282203 2.922756 0.468326
C -0.843230 0.866067 0.496412 1.324479 -0.334014 -2.240461
O 1.115307 -0.296800 -0.360347 -1.889464 0.259585 1.080291
H -0.375514 -1.333710 0.693946 -0.442994 -0.531365 0.341061
H -0.914224 -0.740247 -0.959282 -0.518203 -0.565679 -0.580364
H -1.767000 0.826712 0.951552 -2.365350 -0.404824 1.533827
H -0.158711 1.445591 1.136877 0.231316 -0.628712 -0.138223
H -1.072293 1.483383 -0.401936 0.478139 -0.055958 0.258656
H 1.398258 -0.783574 -1.132109 -0.104035 -0.666180 -0.725823
9
Properties=species:S:1:pos:R:3:forces:R:3 energy=-4214.860432511135
C -0.087519 0.399710 -0.406425 0.061577 0.729325 -1.648116
C -1.219726 -0.219922 0.423039 -1.163490 0.662539 -2.544709
O 1.191727 -0.150836 0.047646 -0.323046 0.451571 -0.991050
H -0.207733 0.120855 -1.539210 0.001912 0.474111 1.678916
H -0.164071 1.624439 -0.410517 0.564340 -2.592678 0.381828
H -0.934625 -0.485029 1.390803 0.649765 -0.052473 1.960954
H -2.037001 0.520423 0.397651 -0.060836 -0.127729 0.504604
H -1.675384 -1.134004 -0.016377 0.510612 0.192652 -0.112768
H 1.678359 -0.396282 -0.776633 -0.236261 0.261086 0.768667
9
Properties=species:S:1:pos:R:3:forces:R:3 energy=-4214.927652611621
C 0.104272 -0.463944 -0.326563 1.985273 1.894344 1.295079
C -1.261469 0.141006 -0.396616 -0.493217 1.025721 2.656088
O 1.094186 0.304546 0.579964 -1.670096 -0.913891 -0.524010
H 0.064292 -1.467508 0.083847 -0.097880 -0.526853 -0.105751
H 0.638747 -0.425156 -1.258429 0.259376 -0.302396 -0.768397
H -1.478845 1.109922 -0.930512 0.530062 -1.001602 0.269066
H -1.882016 -0.677739 -0.662713 -1.217910 -0.662537 -1.046901
H -1.591296 0.259426 0.714847 0.317821 0.272285 -1.434998
H 0.668976 0.213548 1.464447 0.383692 0.213577 -0.334895
9
Properties=species:S:1:pos:R:3:forces:R:3 energy=-4214.972487248435
C 0.266757 0.085025 0.567255 -0.906554 1.080801 0.368418
C -1.223212 0.075764 0.184065 0.270450 -0.479014 2.838386
O 0.843969 -0.180779 -0.661078 1.374959 -1.437008 -2.023703
H 0.586496 1.094012 0.820853 -0.024235 0.387446 0.899314
H 0.559010 -0.640237 1.387577 -0.300828 0.421602 -0.675240
H -1.496125 0.855690 -0.474214 -0.123962 1.228220 -0.786643
H -1.313972 -0.837963 -0.337267 -0.606079 -1.377659 -0.727060
H -1.895562 0.070536 1.069746 0.128293 0.006894 -0.309294
H 1.559728 0.410049 -0.925953 0.191488 0.171142 0.406821
9
Properties=species:S:1:pos:R:3:forces:R:3 energy=-4214.695318545479
C 0.070185 0.025842 0.632643 1.346649 -0.251469 -1.806075
C -1.236252 -0.027726 -0.117084 -1.904144 0.336468 0.722542
O 1.115206 -0.010825 -0.409111 0.450481 0.038608 0.470844
H 0.137069 0.973990 1.128240 0.195304 1.112251 0.277941
H 0.357577 -0.673970 1.468786 -0.744614 -0.343407 -1.018012
H -1.734404 0.939714 -0.217706 0.269063 0.762913 0.538209
H -1.299529 -0.261962 -1.187398 0.739659 -1.059501 0.085092
H -1.986201 -0.578888 0.445653 -0.333797 -0.653723 -0.109503
H 0.717381 -0.206093 -1.287053 -0.019217 0.058320 0.837524
9
Properties=species:S:1:pos:R:3:forces:R:3 energy=-4214.871104212308
C -0.294634 -0.419488 0.132064 3.007305 -2.022303 -0.649196
C -1.075915 0.789690 -0.157595 -0.282403 1.148520 0.125833
O 1.217474 -0.297746 -0.009150 0.196781 0.351495 0.381294
H -0.333900 -0.790482 1.147043 -1.101441 -0.189646 0.472014
H -0.454129 -1.195946 -0.603689 -0.845629 -0.699748 -0.131820
H -0.791841 1.359185 -1.068414 0.245024 -0.327548 0.385170
H -2.151080 0.555256 -0.290556 0.297434 -0.133968 0.228681
H -0.954838 1.395544 0.740992 -0.290480 0.836261 -0.088647
H 1.690978 -1.010183 0.524081 -1.223090 1.033961 -0.722577
9
Properties=species:S:1:pos:R:3:forces:R:3 energy=-4214.650849695620
C -0.084194 -0.427005 0.172655 0.966140 -1.124151 -0.720258
C -1.188631 0.562781 0.356893 -1.193150 0.323146 -2.684168
O 1.168687 -0.138375 -0.537897 -2.127522 -0.820010 -0.803883
H 0.166322 -0.642828 1.197379 0.552364 -0.488619 0.915236
H -0.379072 -1.399284 -0.224718 -0.559715 -0.000570 -0.389635
H -2.003571 -0.111747 0.544069 -0.862702 -0.314579 1.314989
H -0.975401 1.277586 1.127809 -0.189258 0.542415 0.542256
H -1.697143 1.043739 -0.546167 1.345049 -0.041396 0.522447
H 1.503979 0.409593 0.129719 2.070333 1.926764 1.303509
9
Properties=species:S:1:pos:R:3:forces:R:3 energy=-4214.788767657645
C 0.068428 -0.328241 -0.435167 0.423298 -1.754425 -0.402564
C -1.189556 -0.343910 0.406027 0.642125 -0.906824 -0.339364
O 1.006661 0.616533 0.046864 0.132554 -0.160577 0.245063
H 0.583659 -1.302477 -0.239789 -0.323600 0.185482 -0.006643
H -0.086611 -0.397197 -1.532532 0.066657 0.784742 0.088323
H -0.711946 -0.144941 1.345405 -0.604831 0.951777 1.257930
H -2.113631 0.178903 0.123020 0.428046 0.297592 0.141420
H -1.351151 -1.401996 0.518224 -1.058221 -0.820367 -0.078778
H 1.059047 1.289168 -0.610982 0.296358 1.424178 -0.903615
9
Properties=species:S:1:pos:R:3:forces:R:3 energy=-4214.848156093319
C -0.044584 -0.551621 0.211860 -1.214460 1.068381 -1.015802
C -1.129789 0.570790 0.284704 0.012366 -1.356919 2.265911
O 1.057156 -0.052804 -0.504798 1.816755 0.918037 0.673204
H 0.310100 -0.824196 1.181617 -0.111358 -0.276189 1.350109
H -0.381644 -1.483924 -0.250596 -0.252477 -0.018281 -0.371103
H -2.015111 0.046106 0.827938 1.168870 1.439318 0.118829
H -0.596417 1.492097 0.752692 -1.411448 -1.300039 -0.215630
H -1.611870 0.873795 -0.619596 0.225729 0.149119 -1.300079
H 1.507259 0.504378 0.203682 -0.230424 -0.620200 -1.499778
9
Properties=species:S:1:pos:R:3:forces:R:3 energy=-4215.164893086925
C 0.251611 -0.121725 0.543632 -0.941364 1.735916 -1.633906
C -1.203539 0.370280 0.309139 1.370939 1.111551 0.408385
O 0.851852 -0.271210 -0.754408 -0.129379 -1.043501 -0.196526
H 0.884267 0.550959 1.123370 -0.102350 -0.010140 0.632057
H 0.142147 -1.094296 0.931202 0.421177 -1.480568 1.026011
H -1.784686 0.478292 1.217070 -0.176030 0.069599 0.559994
H -1.208079 1.334462 -0.239137 -0.068640 -0.305278 0.135310
H -1.646293 -0.391072 -0.280362 -0.778911 -0.760591 -0.906324
H 1.433155 0.463379 -0.938853 0.405825 0.681299 -0.026636
9
Properties=species:S:1:pos:R:3:forces:R:3 energy=-4214.524718615487
C -0.544245 0.056398 0.277957 0.490148 1.277269 1.612727
C 0.185079 1.115595 -0.587018 -2.114642 -0.436889 -1.061401
O 0.323638 -1.039144 0.340289 0.157296 -1.399028 0.239423
H -0.360936 0.437030 1.262182 -0.892903 0.413404 1.381489
H -1.645121 -0.240757 0.184679 1.131991 0.686831 -0.505822
H 1.273469 0.935818 -0.422610 -0.686141 0.879449 -0.052990
H -0.124338 0.713587 -1.536463 0.712467 -0.112189 -1.594077
H -0.310058 2.132279 -0.684925 1.014972 -0.617932 0.877157
H 0.308623 -1.450313 -0.521599 0.185784 -0.692687 -0.901299
9
Properties=species:S:1:pos:R:3:forces:R:3 energy=-4214.980483831874
C 0.151548 0.503216 -0.136558 0.245109 1.171300 -0.537828
C -1.305840 0.019350 -0.288300 -1.419338 -0.688306 -0.263017
O 1.079119 -0.422290 0.423680 -0.198967 -0.910122 -0.526476
H 0.554711 0.940739 -1.127303 -0.513484 -0.544304 1.056271
H 0.200223 1.310163 0.611365 -0.221920 0.220651 -0.258869
H -1.612469 -0.231397 -1.354558 0.320115 0.961835 0.705228
H -1.425910 -1.028618 0.109045 0.133349 0.883857 0.532731
H -2.104976 0.724898 0.212862 1.437588 -1.300589 -0.956377
H 1.012817 -1.241054 -0.114001 0.214499 0.203990 0.243601
9
Properties=species:S:1:pos:R:3:forces:R:3 energy=-4215.125755172693
C -0.236524 -0.101650 -0.518293 0.442595 -2.098653 1.060601
C -0.119083 1.299161 -0.043091 -0.068065 1.152550 -0.472034
O 0.270368 -1.113395 0.506713 0.753887 1.093461 -0.586384
H -1.288180 -0.407296 -0.712534 0.413290 0.113479 0.191635
H 0.348284 -0.343336 -1.396315 0.171491 0.304486 -0.741550
H -0.831720 1.525503 0.724136 -0.332245 -0.185218 1.214440
H 0.888010 1.600196 0.268685 0.074467 -0.142761 0.081814
H -0.450504 2.046279 -0.782371 0.272605 -0.228268 -0.575038
H 1.278917 -1.019171 0.544649 -1.726566 -0.009239 -0.169469
9
Properties=species:S:1:pos:R:3:forces:R:3 energy=-4214.528511843913
C 0.415421 0.143688 -0.296413 3.855268 0.285957 0.840207
C -0.696045 1.055743 -0.198319 -1.800485 3.122404 -1.429878
O 0.221249 -1.128280 0.406269 2.045623 0.804747 1.756685
H 0.769937 0.034223 -1.382805 -0.314466 -0.401787 1.314419
H 1.215099 0.732446 0.322403 -0.279145 -1.136491 -1.454148
H -1.586078 0.497037 -0.311021 -1.633446 -0.696661 0.006483
H -0.742642 1.623030 0.773404 -0.043423 -0.317812 -0.856396
H -0.745825 1.794401 -1.149450 0.348380 -1.171980 2.143452
H 0.920491 -1.065556 1.193873 -2.177612 -0.488854 -2.322621
9
Properties=species:S:1:pos:R:3:forces:R:3 energy=-4214.919919335990
C 0.098632 -0.073235 -0.464707 -0.341435 -0.116861 -1.617597
C 0.550170 1.218688 0.145466 0.886159 -0.383218 1.083631
O -0.598375 -1.053618 0.234827 -1.481898 -1.262089 1.838865
H -0.570689 0.136515 -1.315299 0.130572 0.184790 -0.306236
H 0.940399 -0.667834 -0.856647 0.527550 0.708615 -0.327836
H 1.208390 0.908041 0.976167 0.704384 0.459769 -0.239565
H 1.044740 1.846466 -0.619903 0.165483 -0.275480 0.370151
H -0.151193 1.846173 0.683320 -1.034251 0.100804 -0.243169
H -0.705587 -0.995720 1.208964 0.440325 0.583721 -0.551672
9
Properties=species:S:1:pos:R:3:forces:R:3 energy=-4214.951844250259
C -0.196167 -0.388496 0.310167 -1.738216 -0.767026 -1.290139
C -0.997495 0.915136 -0.025259 2.352120 0.016389 1.065821
O 1.095630 -0.429554 -0.233914 1.150650 2.153462 1.057471
H -0.273988 -0.543714 1.400297 0.611028 0.065717 0.114044
H -0.703012 -1.263956 -0.144529 -0.529025 0.160177 0.264637
H -1.983438 0.723536 0.393832 -0.309252 0.553284 0.425778
H -0.354124 1.752918 0.521323 -1.762105 -1.100051 -1.237020
H -1.125633 1.074963 -1.109129 0.355742 0.166074 0.206852
H 1.271655 -1.202266 -0.743785 -0.125065 -1.245810 -0.606204
9
Properties=species:S:1:pos:R:3:forces:R:3 energy=-4214.934433555180
C -0.196885 -0.515603 0.062936 0.998323 -0.716810 -3.309102
C -1.086060 0.600057 0.433288 1.686156 3.154394 0.752685
O 1.168753 -0.060366 -0.404908 -0.728557 -0.779191 -0.975317
H 0.021830 -1.195073 0.870384 -0.289611 -0.543426 0.561087
H -0.696794 -1.054204 -0.826923 0.712142 0.216233 1.173190
H -2.052812 0.292668 0.661930 -2.032263 -1.088821 0.512948
H -0.694653 1.058012 1.408108 -0.421216 -0.041169 -1.180300
H -1.249633 1.424397 -0.353037 0.697581 -1.065421 0.856959
H 1.406717 -0.575462 -1.246256 -0.626500 0.863183 1.606427
9
Properties=species:S:1:pos:R:3:forces:R:3 energy=-4214.858514357102
C -0.185047 0.301156 0.453466 -0.833160 1.953044 0.740726
C 0.299577 0.837170 -0.835127 1.406678 2.127122 -0.712361
O -0.148952 -1.032038 0.315589 -0.004796 -5.013258 0.581017
H 0.510336 0.506799 1.277038 -0.180370 1.129071 0.211879
H -1.254306 0.649749 0.678707 1.054661 -0.026310 0.075032
H 0.522528 1.917736 -0.686836 0.166527 -0.155372 -0.202651
H 1.261085 0.320316 -1.122407 -0.873311 0.428038 0.036191
H -0.430891 0.846746 -1.648214 -0.111098 -0.543965 -0.117488
H 0.389878 -1.425322 1.040163 -0.624930 0.098118 -0.608253
9
Properties=species:S:1:pos:R:3:forces:R:3 energy=-4214.976740763031
C -0.120738 0.265913 -0.525572 -0.926437 -1.588707 0.208494
C -1.186608 -0.055294 0.532556 2.289581 -1.879624 1.276879
O 1.173139 -0.208137 -0.057743 -1.225370 -1.064121 -1.411418
H -0.433016 -0.371369 -1.413352 0.853934 1.110371 0.309827
H -0.134891 1.337815 -0.642931 0.280109 0.636240 -0.902868
H -0.865327 0.525804 1.438064 -0.868537 -0.439416 -0.261404
H -2.232539 -0.007421 0.280535 -0.546480 0.566192 -0.299293
H -0.961513 -1.171808 0.734520 -0.531303 1.374059 0.196704
H 1.583088 0.479554 0.436514 0.676217 1.284419 0.883011
9
Properties=species:S:1:pos:R:3:forces:R:3 energy=-4214.724743310559
C 0.204077 -0.456094 -0.303589 -1.891524 1.893304 2.508999
C -1.360916 0.003312 -0.329526 0.750695 0.957032 1.148240
O 1.119862 0.394090 0.532323 -1.711826 -0.418018 -0.110972
H 0.161277 -1.479907 0.078076 0.517790 -0.173129 0.035775
H 0.496748 -0.408297 -1.309903 1.169810 0.008611 -1.429838
H -1.697367 0.307338 -1.339846 0.216590 -0.122503 0.240533
H -1.871800 -0.927491 -0.036151 -0.536074 0.481783 0.049146
H -1.662029 0.912416 0.387655 0.782994 -1.943954 -1.191170
H 0.581204 0.734296 1.314671 0.702431 -0.677932 -1.250170
9
Properties=species:S:1:pos:R:3:forces:R:3 energy=-4214.620865435198
C -0.517897 -0.207420 -0.316923 0.919775 3.659150 2.405830
C 0.493633 0.879256 -0.815463 -0.029016 1.186730 1.795895
O 0.015752 -0.591988 1.034323 -1.288249 -1.193020 -1.034961
H -1.461327 0.439262 -0.223158 0.375088 -1.682856 0.050823
H -0.525160 -1.062097 -0.943437 -0.466775 -0.862468 -0.884788
H 0.097069 1.701883 -1.433199 -0.774914 0.187587 0.672760
H 1.194562 1.338045 0.010248 -1.502367 -0.957505 -1.233560
H 1.088521 0.479735 -1.548792 2.310231 -1.586337 -1.660256
H -0.355563 -1.507147 1.213752 0.459864 1.243580 -0.110254
9
Properties=species:S:1:pos:R:3:forces:R:3 energy=-4214.820124016647
C -0.340892 0.114469 0.318078 -1.536597 0.331924 0.893216
C 0.082608 1.202786 -0.740114 1.356739 0.395829 3.006355
O 0.256728 -1.213429 0.423172 0.073480 1.768985 0.616077
H -0.122647 0.489565 1.365195 -0.486635 0.016646 -1.016652
H -1.496569 0.003722 0.169252 1.518277 0.077943 0.539336
H 1.213902 1.256721 -0.818861 -1.186420 0.103579 -0.330228
H -0.474968 1.209938 -1.621043 -0.485848 -0.913213 -2.218742
H -0.321101 2.190960 -0.346194 0.787059 -0.762869 0.251347
H 0.202982 -1.587723 -0.436495 -0.046351 -1.019162 -1.745505
9
Properties=species:S:1:pos:R:3:forces:R:3 energy=-4214.620425358860
C -0.346209 0.124979 0.323308 1.184880 0.872863 3.240433
C 0.102614 1.219075 -0.691692 0.089116 -2.999675 -0.884675
O 0.192718 -1.236556 0.366042 1.768025 0.881014 -2.571069
H -0.111083 0.635176 1.449648 -0.471253 -1.283029 -2.566229
H -1.379356 -0.125606 0.353992 -1.544157 0.714008 -0.332731
H 1.162021 1.404615 -0.536785 0.439695 0.091188 -0.187524
H -0.098057 0.939910 -1.797479 0.171809 0.513462 1.526187
H -0.423418 2.074837 -0.367875 -0.836917 1.384298 -0.021672
H 0.692532 -1.317988 -0.522133 -0.802624 -0.172836 1.794685
9
Properties=species:S:1:pos:R:3:forces:R:3 energy=-4214.853042812644
C -0.164442 -0.267839 0.414993 -0.693724 -0.795688 -0.505014
C -1.048664 0.801009 -0.144900 -1.147330 0.531376 2.202402
O 1.162398 -0.447173 -0.224754 -1.982214 -1.206910 -0.174282
H -0.048916 -0.060651 1.482591 0.409389 -0.293861 0.190408
H -0.930255 -1.095116 0.279720 1.673626 -0.543530 0.381161
H -2.041739 0.662650 0.420849 0.975294 0.270893 -0.751520
H -0.704907 1.777133 0.141155 0.284626 1.000612 -0.273903
H -1.252385 0.704886 -1.172841 -0.178027 -0.025484 -1.637286
H 0.981512 -1.245566 -0.802319 0.656509 1.060141 0.561739
9
Properties=species:S:1:pos:R:3:forces:R:3 energy=-4214.967808427380
C -0.004069 -0.041892 0.580329 -0.523458 1.661046 -0.693037
C -1.116378 0.508353 -0.280106 -1.189940 0.094554 0.031385
O 1.027326 -0.404710 -0.294962 2.022773 -0.848986 0.346803
H 0.183540 0.793286 1.305917 0.815632 -0.661359 -0.027482
H -0.346184 -0.922641 1.074726 -0.511889 -0.752345 0.980078
H -1.623219 1.316102 0.218383 -0.428363 0.580637 0.626864
H -0.944265 0.924484 -1.266817 1.045091 -0.064447 -0.356292
H -1.871417 -0.238289 -0.431905 -0.685289 -0.732967 -0.259700
H 1.644784 -1.008722 0.204242 -0.544227 0.719445 -0.647600
9
Properties=species:S:1:pos:R:3:forces:R:3 energy=-4214.845473865646
C -0.058179 0.015964 -0.543235 0.503146 -0.123324 -2.825676
C -1.170339 -0.364191 0.424465 -0.929272 -0.730944 -1.127771
O 1.120448 0.367141 0.092926 1.180030 1.789415 0.517409
H 0.314324 -0.807346 -1.295721 -1.494448 0.636299 0.945634
H -0.319461 0.893948 -1.252585 0.170228 -0.988747 1.157550
H -1.490013 -1.384373 0.122406 0.251270 -0.053877 0.907325
H -0.918432 -0.226702 1.496203 -0.015781 -0.258321 -0.510697
H -2.087358 0.187005 0.186142 -0.017836 0.483979 0.279959
H 1.353802 -0.342298 0.683791 0.355624 -0.757418 0.654158
9
Properties=species:S:1:pos:R:3:forces:R:3 energy=-4214.726769283695
C -0.308189 -0.263178 -0.478280 -1.842605 1.299359 1.246010
C -0.165541 1.327839 -0.218534 2.658418 -0.809389 0.077858
O 0.452750 -1.001726 0.570166 -0.993493 0.490092 -1.078791
H -1.421668 -0.464844 -0.374831 0.850808 -0.124395 0.193082
H -0.145114 -0.614748 -1.523328 0.960239 0.153338 0.751281
H 0.192496 1.993584 -1.048103 -0.970919 -0.619355 -0.028077
H -0.917020 1.825843 0.416965 -0.148793 -0.380277 -0.383314