9
Properties=species:S:1:pos:R:3:forces:R:3 energy=-7263.759521032069
C 1.001830 -0.202421 0.930949 -1.547294 5.224538 -1.732105
C 0.497606 0.100165 -0.525537 1.055905 0.358003 1.595576
C -0.814727 0.799945 -0.558047 -0.918001 2.118484 0.845532
O -1.741592 0.563631 -1.296202 -0.306819 -0.920864 -0.707151
O 1.114227 -1.245321 1.430802 0.684356 -3.874063 1.511306
H 1.102520 0.791397 1.495646 0.330211 -0.569239 0.032799
H 1.252672 0.823341 -0.915133 -0.230311 -0.446945 -0.189968
H 0.446855 -0.840950 -1.005609 0.036050 -0.985219 -1.231424
H -1.004279 1.733950 0.107331 0.895904 -0.904696 -0.124567
9
Properties=species:S:1:pos:R:3:forces:R:3 energy=-7263.407768173972
C -0.835341 0.115968 0.856764 -0.246750 -0.250397 1.138195
C -0.521585 -0.445316 -0.434376 -0.163967 -1.511206 -2.022699
C 0.872494 0.045538 -0.718488 3.148166 -0.001942 1.083038
O 1.148466 0.807624 -1.608549 -0.068853 0.231457 -0.471419
O -0.730962 -0.541847 1.869753 -0.161330 0.001179 0.885460
H -1.026887 1.173191 0.845943 -0.507965 1.368898 0.341062
H -0.469711 -1.528196 -0.273082 0.016293 -0.230129 -0.153390
H -1.246283 -0.227238 -1.280255 0.872328 0.181690 0.790011
H 1.886655 -0.253868 0.089527 -2.887922 0.210450 -1.590258
9
Properties=species:S:1:pos:R:3:forces:R:3 energy=-7263.768450476354
C 1.011564 0.391380 0.916608 1.093860 -0.279600 -0.367306
C 0.150108 -0.773283 0.477753 0.027096 1.212300 1.545519
C -0.966566 -0.258180 -0.375317 0.379867 -3.521215 -2.319037
O -1.172603 -0.916056 -1.417897 -0.420732 1.526774 1.178622
O 0.963806 1.530545 0.472892 -0.058633 -0.660625 0.578929
H 1.798050 0.007308 1.641082 -0.074884 0.772991 -0.038321
H 0.742133 -1.475505 -0.103942 0.285229 -0.234435 -0.251654
H -0.047172 -1.293701 1.456989 -0.612816 0.187147 -0.708453
H -1.505177 0.635923 -0.136756 -0.618987 0.996662 0.381701
9
Properties=species:S:1:pos:R:3:forces:R:3 energy=-7263.273268131557
C -0.466718 -0.916580 0.982023 -0.284068 -2.156896 1.584297
C 0.520138 -0.875851 -0.127448 1.338476 1.434334 0.205088
C 1.001434 0.689737 -0.591158 -2.794612 -2.662383 -3.132617
O 0.296279 1.144379 -1.516092 1.929221 -0.011799 2.431143
O -1.261908 -0.080251 1.288256 -1.025566 2.105915 0.032467
H -0.588892 -1.877252 1.636764 0.884781 0.339981 -1.051843
H 1.344490 -1.568742 0.120204 0.205775 0.379343 0.016680
H -0.013328 -1.369968 -0.947878 0.038134 0.386239 -0.547642
H 2.014217 1.065236 -0.331493 -0.292141 0.185265 0.462429
9
Properties=species:S:1:pos:R:3:forces:R:3 energy=-7263.609789997952
C -0.427491 -0.630402 0.832359 1.366351 0.853476 0.301266
C 0.499509 0.598894 0.365333 -4.502898 -0.252038 -2.095934
C 0.594609 0.756977 -1.128180 1.214668 -0.051788 0.761091
O 0.431134 -0.114223 -1.928323 -0.636192 -1.880918 -1.381970
O -1.054697 -0.571450 1.860879 -0.531669 0.265373 0.321387
H -0.349051 -1.610123 0.319326 0.099584 0.199228 -0.628574
H 0.045677 1.573889 0.579380 -0.331725 -0.034859 1.020435
H 1.374446 0.546728 0.872847 3.221564 -0.246163 1.518836
H 0.881819 1.729445 -1.529316 0.100317 1.147687 0.183463
9
Properties=species:S:1:pos:R:3:forces:R:3 energy=-7263.750882139826
C 0.608067 -0.649453 0.834918 1.761373 1.044697 -2.088889
C 0.045796 -0.751675 -0.588807 0.522253 0.000673 0.838284
C -0.624108 0.603340 -0.666562 2.715093 1.189910 -1.599389
O -1.770863 0.903651 -0.633123 -2.637215 -0.322007 0.505928
O 1.735451 -0.204118 1.024024 -0.568477 -0.609610 0.328693
H -0.137775 -0.734035 1.563405 -1.305976 -0.535451 2.124332
H 0.973594 -0.790956 -1.212455 -0.980796 -0.132035 -0.150840
H -0.736936 -1.509006 -0.679176 0.224703 -0.396373 -0.232996
H 0.107095 1.437325 -0.866592 0.269043 -0.239803 0.274877
9
Properties=species:S:1:pos:R:3:forces:R:3 energy=-7263.685273837074
C 1.099123 0.030675 0.006463 2.340429 -0.752795 -2.174173
C -0.092335 -0.230932 0.821027 -2.037783 -0.276671 1.463696
C -1.489166 0.072759 0.170794 1.199086 -0.272069 0.613231
O -1.522720 0.930691 -0.678328 -1.279906 -0.082321 -0.278966
O 1.984008 -0.826861 -0.272134 -2.142272 2.222406 0.888882
H 1.113273 1.110183 -0.468742 0.217051 -1.480351 0.664780
H -0.181473 -1.179839 1.353968 0.551267 -0.559551 -0.290888
H -0.122983 0.483582 1.666641 0.182895 0.281536 -0.039745
H -2.384548 -0.542018 0.639504 0.969235 0.919816 -0.846818
9
Properties=species:S:1:pos:R:3:forces:R:3 energy=-7263.431442088200
C 0.343039 -0.197197 1.375679 -0.303349 1.368911 0.648470
C 0.220041 -0.863165 -0.003218 2.527054 2.440351 -1.441845
C -0.289566 0.133450 -1.118981 -1.293276 0.953993 -0.784334
O -1.206988 -0.003559 -1.950969 2.082789 -0.299375 2.034192
O 0.947284 0.860378 1.719313 -1.838971 -3.508468 -1.000703
H -0.408787 -0.890849 1.989497 1.362646 1.652065 0.374844
H 1.284585 -1.045392 -0.409876 -1.116552 -0.034837 0.553960
H -0.297330 -1.767072 0.143000 -0.912390 -1.341697 -0.340258
H 0.283124 1.148642 -1.065971 -0.507950 -1.230943 -0.044326
9
Properties=species:S:1:pos:R:3:forces:R:3 energy=-7263.521771916210
C -0.689131 -1.154963 0.449383 0.659329 0.524015 -0.874435
C 0.580912 -0.462068 -0.328277 -2.601296 -1.065915 -2.220184
C 0.621740 1.069776 -0.437093 1.986567 0.119747 0.903857
O 0.194101 1.769905 -1.328143 -0.860564 -0.421326 -0.294315
O -0.680826 -1.251960 1.650272 -0.363526 -0.212083 0.015625
H -1.559816 -1.584872 -0.233209 1.261090 0.748872 0.892056
H 1.519315 -0.948914 0.043344 -0.616950 0.585358 -0.242502
H 0.293923 -0.720824 -1.433478 1.032937 -0.061296 1.532259
H 1.351810 1.554983 0.275402 -0.497588 -0.217374 0.287639
9
Properties=species:S:1:pos:R:3:forces:R:3 energy=-7263.755000385987
C 1.137080 0.302835 0.289028 2.557177 -0.292549 -0.682440
C -0.137286 -0.203116 0.656130 -3.130134 -0.903790 1.852199
C -0.760118 -0.980392 -0.453498 -0.803513 -0.930294 -0.375744
O -1.666220 -0.569082 -1.155802 0.171860 0.062176 0.138729
O 1.440216 1.396005 0.681145 1.325962 1.599824 -0.019675
H 1.876754 -0.385954 -0.305590 -0.809030 0.764127 0.543121
H 0.020518 -0.852647 1.570587 -0.068042 0.069892 -0.788935
H -0.813158 0.628158 1.031856 0.667656 -0.648231 -0.639562
H -0.354246 -2.020673 -0.621138 0.088063 0.278846 -0.027692
9
Properties=species:S:1:pos:R:3:forces:R:3 energy=-7263.891649260076
C -0.374653 0.223739 1.038295 0.323640 -1.894606 0.531292
C 0.843320 -0.379273 0.176506 -2.177500 0.615237 0.847542
C 0.722741 -0.129761 -1.301489 -0.679093 0.665812 -1.051239
O -0.098742 0.633705 -1.825211 1.038790 -0.937965 0.681420
O -1.027177 -0.379623 1.901398 1.266367 1.042037 -1.698871
H -0.483151 1.286724 0.801452 -0.508550 0.550168 0.110257
H 1.667429 0.196584 0.559272 0.990358 0.421764 0.175130
H 1.024350 -1.415302 0.412050 0.102790 -0.718805 0.075969
H 1.465010 -0.700807 -1.949162 -0.356801 0.256357 0.328500
9
Properties=species:S:1:pos:R:3:forces:R:3 energy=-7263.650828920690
C 1.207322 -0.632687 0.427168 -0.833134 -0.769747 -4.433144
C -0.223284 -0.696686 -0.304611 0.561020 0.397218 0.486671
C -0.689551 0.587259 -0.981356 0.534028 -0.163067 -0.364256
O -1.772148 1.069481 -0.714170 0.173364 0.301473 -0.163575
O 1.504078 -0.382493 1.537956 -0.121582 0.580738 2.600713
H 1.997697 -0.860843 -0.354148 0.012994 0.048281 0.297867
H -0.198880 -1.485299 -1.129474 -0.052696 0.558944 1.164968
H -1.043617 -0.705673 0.408064 -0.159286 -1.276476 0.503253
H -0.010742 0.990849 -1.767205 -0.114708 0.322636 -0.092497
9
Properties=species:S:1:pos:R:3:forces:R:3 energy=-7263.500562450999
C 0.460023 -0.028028 1.013194 -0.680182 -0.319359 0.552738
C 0.186022 0.715839 -0.163054 1.125614 0.448778 -4.632913
C -0.449744 -0.053716 -1.413061 -0.605858 2.123432 -0.424880
O -1.178591 -1.018658 -1.431276 0.600238 -0.327105 0.479138
O 1.019481 0.392454 1.978976 1.516784 0.997743 2.015824
H 0.050125 -0.995525 1.010195 -0.748250 -2.378998 0.053577
H -0.562138 1.483858 -0.088832 -0.557275 0.836987 0.573656
H 1.132137 1.243969 -0.551983 -1.100464 -0.454470 0.520786
H -0.435229 0.652481 -2.355440 0.449395 -0.927006 0.862076
9
Properties=species:S:1:pos:R:3:forces:R:3 energy=-7263.655953942291
C 0.033948 -0.468337 1.411657 1.366895 0.240795 -0.052612
C 0.659832 -0.536192 -0.101173 1.017294 0.734877 2.886362
C 0.465557 0.726468 -0.886949 -0.395045 2.216314 -0.231011
O 0.067589 0.769273 -2.035824 -0.038066 -0.831107 -0.378724
O -1.144654 -0.518118 1.633310 -0.625981 -0.085557 -0.191686
H 0.752518 -0.370549 2.342322 -0.421129 -0.096289 -1.499074
H 1.750649 -0.767771 0.072290 -0.700729 0.285681 -0.394881
H 0.184850 -1.331985 -0.611469 -0.582478 -1.078997 -0.708821
H 0.592287 1.797799 -0.460807 0.379239 -1.385717 0.570448
9
Properties=species:S:1:pos:R:3:forces:R:3 energy=-7263.084172168928
C 0.817648 0.051685 1.044355 0.397952 3.460607 -0.464747
C -0.142242 -0.731696 0.064354 -0.084468 -3.205671 5.376278
C -0.060067 -0.354568 -1.346655 1.889739 -1.076658 1.974835
O -1.019737 0.164273 -1.783146 -2.553001 1.754247 -2.975314
O 0.444893 0.795447 1.979829 0.352993 -2.379727 -1.554203
H 1.909087 0.330663 0.629043 -1.466061 -1.251246 0.609576
H 0.120435 -1.858090 0.276390 0.341189 1.443133 -0.844021
H -1.174457 -0.817429 0.622662 1.302294 1.076036 -1.550571
H 0.935633 -0.560248 -1.814763 -0.180636 0.179280 -0.571832
9
Properties=species:S:1:pos:R:3:forces:R:3 energy=-7263.813091168302
C 0.145939 -1.008187 0.949498 -0.662705 -0.323163 1.583901
C 0.701099 -0.240928 -0.177028 0.150774 2.307944 1.245384
C -0.305940 0.749890 -0.835190 -1.073553 -2.632546 1.559335
O -0.211091 1.057444 -1.971821 0.416252 1.299182 -2.330688
O -0.284865 -0.581575 2.022448 0.264288 0.269875 -0.869202
H 0.122284 -2.095727 0.795726 0.006909 -0.612299 -0.233575
H 1.401765 0.525432 0.281044 -0.031472 -0.845407 -0.410806
H 1.162820 -0.914597 -0.869662 0.533579 -0.059532 -0.852052
H -1.263730 0.880817 -0.263371 0.395928 0.595946 0.307702
9
Properties=species:S:1:pos:R:3:forces:R:3 energy=-7263.310510172860
C 0.978539 0.185105 -0.443815 0.928771 -0.491251 -0.582167
C 0.137947 -0.864571 0.157942 -2.106613 -1.687647 -0.678917
C -1.304567 -0.377679 -0.193400 -0.666340 -0.391695 -0.472695
O -1.830371 0.595890 0.317624 0.127664 -0.853750 -0.340054
O 1.990175 0.406511 0.169936 1.551774 1.550622 -0.154063
H 0.744277 0.602939 -1.513489 0.123587 -0.290255 1.355570
H 0.236700 -1.747847 -0.510278 0.188192 0.046433 0.088037
H 0.497605 -1.241644 1.178152 -0.828544 1.149500 -1.004436
H -1.775603 -0.927148 -1.182579 0.681509 0.968043 1.788724
9
Properties=species:S:1:pos:R:3:forces:R:3 energy=-7263.778692278486
C 0.708819 0.916812 0.393679 0.308277 0.940800 -0.060003
C -0.253338 -0.207473 0.515651 -2.109742 0.818720 0.790999
C -1.086885 -0.415247 -0.715304 -0.693102 0.326232 -0.358506
O -1.006746 -1.453101 -1.356885 -0.432194 0.839331 0.051395
O 1.593751 1.185514 1.175041 0.288356 -0.191520 0.600954
H 0.628287 1.542447 -0.515679 -0.246729 0.105641 -0.426117
H 0.268616 -1.091719 0.621748 1.649273 -2.213768 0.406467
H -0.906778 -0.194419 1.455991 0.590575 0.516107 -0.977833
H -1.785589 0.487528 -0.987634 0.645287 -1.141544 -0.027356
9
Properties=species:S:1:pos:R:3:forces:R:3 energy=-7263.488595178061
C 1.217642 0.057276 0.801672 -0.930535 1.137634 1.094797
C -0.201084 0.470642 0.598600 -0.664309 2.746020 0.441623
C -0.772405 0.116510 -0.802166 0.545618 -0.765588 1.588597
O -1.726446 0.495004 -1.428906 -0.301130 0.686334 0.222603
O 1.485060 -1.095567 0.831943 1.309852 -3.307771 -0.446662
H 1.970264 0.789114 1.154657 0.098964 0.644266 -0.344581
H -0.771861 0.193018 1.516879 -0.048508 -0.642782 -0.735602
H -0.164334 1.553247 0.780668 -0.478028 0.551545 -0.485973
H -0.113393 -0.680721 -1.103496 0.468075 -1.049658 -1.334804
9
Properties=species:S:1:pos:R:3:forces:R:3 energy=-7263.492358437795
C -0.430654 -0.906107 1.088984 1.610158 2.484229 -0.403087
C -0.309405 -0.737803 -0.504863 1.925970 0.165418 -0.179678
C 0.458621 0.608734 -1.001281 -1.571726 -0.306789 1.149684
O -0.262688 1.492429 -1.429469 0.943697 -0.125453 -0.180802
O 0.508961 -0.541964 1.829914 -1.857507 -1.239027 -1.491785
H -1.430623 -1.140138 1.504124 -0.010534 -0.426158 -0.040400
H 0.435708 -1.522640 -0.761568 -0.306372 -0.139362 -0.038881
H -1.149879 -0.813161 -1.249139 0.080649 -0.134043 1.288603
H 1.587661 0.724848 -0.878931 -0.814335 -0.278816 -0.103653
9
Properties=species:S:1:pos:R:3:forces:R:3 energy=-7263.309702266224
C 0.161291 -0.836425 0.556655 0.428756 -0.074282 1.756789
C -0.813088 0.331834 0.164094 -0.558080 0.788816 1.565117
C 0.021903 1.323064 -0.670051 0.343227 1.098450 0.189943
O 0.702884 0.819354 -1.552403 -0.221089 0.597894 0.206201
O -0.117077 -1.588506 1.498796 0.496006 0.856866 -1.834813
H 1.275030 -0.768620 0.109646 -2.087789 -0.305031 0.410338
H -1.648956 0.088358 -0.478694 -0.064901 -0.892867 -0.930368
H -1.530979 0.630224 1.080545 2.159069 -0.069577 -1.271786
H 0.110479 2.506832 -0.464721 -0.495199 -2.000269 -0.091421
9
Properties=species:S:1:pos:R:3:forces:R:3 energy=-7263.234286930142
C 0.587586 0.221600 1.320737 1.297354 -1.353340 0.753002
C -0.451526 -0.057651 0.214036 1.673646 -1.298964 -1.162049
C -0.138819 0.493957 -1.402590 -2.930683 -1.562386 1.152331
O -0.863800 0.042746 -2.311716 2.538843 1.424197 2.049104
O 0.875369 -0.649431 2.162745 -0.660593 1.111524 -1.144961
H 1.220993 1.174489 1.411607 -0.985356 -0.293762 -0.570754
H -0.626072 -1.234148 0.242349 0.079326 2.366068 -0.244608
H -1.327991 0.484504 0.550446 -0.767154 0.190591 -0.225123
H 0.580744 1.366376 -1.414847 -0.245383 -0.583930 -0.606943
9
Properties=species:S:1:pos:R:3:forces:R:3 energy=-7263.863703707923
C 0.355655 -0.832389 0.798390 0.305122 1.774805 1.538705
C -0.717717 -0.320182 -0.140903 -0.111895 -1.096837 -0.503418
C -0.319647 0.965725 -0.865023 1.694008 -0.479124 -0.441089
O 0.438766 0.934228 -1.839645 -1.026799 0.020752 0.749852
O 0.171467 -0.761648 2.016387 0.378383 -0.703702 -1.111172
H 1.355334 -1.016623 0.373076 0.236269 -0.543234 -0.141248
H -0.860390 -1.128076 -0.895778 -0.100141 0.445544 0.090002
H -1.532733 -0.311115 0.573050 -0.902136 0.625418 -0.271378
H -0.526935 1.943614 -0.382832 -0.472810 -0.043620 0.089745
9
Properties=species:S:1:pos:R:3:forces:R:3 energy=-7263.682449226284
C -0.223784 -0.727440 1.153416 -3.440677 -0.404689 -1.919355
C -0.962393 -0.567404 -0.206768 0.960480 -0.552018 -0.847443
C -0.428295 0.553064 -1.177757 -1.915170 -1.577559 0.623621
O 0.670580 1.007616 -1.103806 1.023679 0.864685 -0.435905
O 0.854276 -0.295441 1.335818 2.638356 0.517970 1.348405
H -0.930107 -1.245044 1.873627 0.650478 0.036713 0.394372
H -0.782890 -1.543675 -0.794098 -0.349141 0.988884 0.671397
H -2.043309 -0.483884 -0.033451 -0.131569 -0.048029 -0.150224
H -1.211689 0.807869 -1.974981 0.563564 0.174042 0.315132
9
Properties=species:S:1:pos:R:3:forces:R:3 energy=-7263.436207795482
C 0.791216 -0.275807 1.179546 3.431464 -1.010761 1.209166
C 0.533501 0.693829 0.160398 -2.477278 0.231144 -1.840339
C -0.551671 0.040276 -0.996372 1.726277 -0.076994 5.902643
O -0.660961 0.540760 -2.031575 -0.706255 0.964051 -3.864115
O -0.044149 -0.977024 1.692047 -1.640479 -0.676992 0.583324
H 1.917645 -0.493781 1.519920 -1.286952 0.610566 -0.767525
H -0.130466 1.495184 0.521259 -0.073335 -0.035595 0.170280
H 1.322726 1.157419 -0.367067 1.375670 0.426020 -0.450852
H -1.130695 -0.694201 -0.378719 -0.349112 -0.431438 -0.942582
9
Properties=species:S:1:pos:R:3:forces:R:3 energy=-7263.474262670408
C 1.131920 0.197128 0.087044 0.761466 -2.794302 -1.737364
C -0.077276 -0.036807 -0.898724 -0.228097 2.736934 1.003423
C -1.247460 -0.297605 0.108958 0.196676 -3.152471 0.402133
O -2.013319 0.520429 0.552455 0.096546 0.683190 -0.301150
O 2.200465 -0.411009 0.074932 -0.989091 0.821576 -0.277187
H 0.856871 0.813757 0.904672 -0.278636 1.396211 1.231845
H -0.322473 1.011179 -1.225185 0.129060 -0.300590 0.213812
H 0.088951 -0.518547 -1.869659 0.020823 -1.047479 0.624957
H -1.297960 -1.406614 0.605119 0.291252 1.656931 -1.160468
9
Properties=species:S:1:pos:R:3:forces:R:3 energy=-7263.621211574024
C 0.965068 -0.578733 0.620870 1.411993 -1.388872 1.848716
C -0.438630 -0.029024 0.667567 1.107597 2.679676 -1.864215
C -0.754686 0.391498 -0.920676 1.643805 -0.854354 3.324071
O -1.827880 0.277346 -1.397410 -1.475874 0.083540 -1.297222
O 2.027304 -0.079635 1.048005 -2.120505 -0.200909 -1.121690
H 1.008716 -1.679307 0.273646 -0.070025 0.935647 -0.086185
H -1.212076 -0.645409 1.087374 -0.355270 -0.684313 0.070573
H -0.445379 0.999608 1.148025 0.086022 -0.904695 -0.155455
H 0.201452 0.764507 -1.345101 -0.227743 0.334279 -0.718593
9
Properties=species:S:1:pos:R:3:forces:R:3 energy=-7263.730289146414
C -0.474005 -0.566023 1.046306 1.171361 3.319900 -0.418179
C 0.512975 0.442340 0.271027 1.908803 -1.317484 0.643830
C 0.988529 0.004635 -1.120589 -2.128499 0.823227 -0.052709
O 0.212044 0.127557 -2.062611 0.650995 -0.278901 -0.056627
O -1.187898 -0.032092 1.870703 -0.294729 -1.272608 -0.048747
H -0.349223 -1.618934 0.793842 -0.349321 -0.773645 0.145284
H 0.110724 1.465530 0.288576 -0.241217 -0.267875 -0.153671
H 1.483334 0.464005 0.883007 -1.104879 -0.026215 -0.165829
H 1.999912 -0.406625 -1.263635 0.387487 -0.206399 0.106648
9
Properties=species:S:1:pos:R:3:forces:R:3 energy=-7263.823581599844
C -0.055604 -0.760035 1.220266 -0.756445 0.088281 0.541072
C 0.929181 -0.443559 0.085999 -0.356529 -0.708530 -1.608391
C 0.349203 0.722820 -0.687675 0.368989 1.351743 1.289554
O 0.068056 0.765694 -1.855524 -0.184910 -0.104971 -0.515704
O -1.214022 -0.330611 1.281045 1.529383 -0.333022 -0.499245
H 0.289990 -1.425859 2.046309 0.247269 -0.037823 -0.165986
H 1.950557 -0.082858 0.339501 -0.306787 -0.444347 0.608524
H 1.075415 -1.328590 -0.652373 -0.327742 0.932957 1.249235
H 0.302065 1.660783 0.014285 -0.213228 -0.744289 -0.899059
9
Properties=species:S:1:pos:R:3:forces:R:3 energy=-7263.709455176848
C 0.925242 -0.289695 1.048937 -1.176821 -1.413844 1.370783
C -0.635351 -0.014104 0.842652 0.727039 -0.935886 0.793519
C -1.191817 -0.046211 -0.575346 -0.772752 -1.620895 2.654892
O -0.901492 0.691731 -1.442270 0.876386 2.034930 -2.549828
O 1.747409 -0.347708 0.190490 0.836161 0.415972 -1.447800
H 1.283337 -0.623550 2.102517 -0.948175 0.702562 -0.529412
H -1.245275 -0.767898 1.413308 0.715651 0.455699 0.035860
H -0.736658 0.944206 1.362280 -0.408598 0.387090 -0.176857
H -1.983108 -0.842059 -0.692626 0.151110 -0.025627 -0.151156
9
Properties=species:S:1:pos:R:3:forces:R:3 energy=-7263.457381199772
C 0.262435 0.915939 1.067618 0.804553 -2.300902 -0.068339
C 0.001653 0.780829 -0.485835 2.698469 4.031608 1.559514
C 0.231478 -0.530191 -1.088467 -0.491470 0.226507 0.142601
O -0.760415 -1.128204 -1.443186 0.057561 -1.382676 -0.662312
O 0.303747 0.003363 1.896124 -0.221728 1.129653 -1.274517
H 0.452627 1.943062 1.348396 -0.095516 1.041628 0.452121
H -0.997514 1.162545 -0.434603 -1.419929 -0.203755 -0.805987
H 0.592229 1.758051 -0.953825 -0.915088 -2.476031 0.838790
H 1.294734 -0.908922 -1.111950 -0.416851 -0.066031 -0.181871
9
Properties=species:S:1:pos:R:3:forces:R:3 energy=-7263.467839541452
C 0.462940 -0.119205 1.420896 -1.871040 2.001509 0.888194
C 0.464716 -0.763434 -0.004349 1.585139 2.813727 1.456876
C -0.285736 0.099861 -1.024394 -2.297871 -0.061191 -1.072735
O -0.941345 -0.397976 -1.969515 1.808349 0.861520 1.850286
O 0.369822 1.123895 1.571898 0.674614 -2.974560 -0.004525
H 0.321616 -0.865533 2.373736 0.611890 1.235214 -1.752686
H 1.573561 -0.855710 -0.103893 -0.456391 -0.177021 -0.783807
H 0.010984 -1.683338 0.110588 -0.828459 -2.498953 -0.231292
H -0.484904 1.210214 -0.741863 0.773768 -1.200243 -0.350310
9
Properties=species:S:1:pos:R:3:forces:R:3 energy=-7263.788921381832
C -0.167081 0.212519 1.055153 -0.825624 -0.503774 1.492457
C -0.743037 0.069603 -0.303816 -1.629546 1.939660 -0.822745
C 0.225931 -0.224027 -1.335336 2.917757 1.492467 -2.292333
O 1.334460 0.343718 -1.412391 -1.264495 -0.985257 0.249685
O -0.681400 -0.412197 1.972798 0.444890 0.245304 0.093085
H 0.680916 0.906692 1.245964 0.053071 -0.057431 -0.341733
H -1.506415 -0.675568 -0.409860 -0.791670 -0.712085 0.747977
H -1.317023 1.062796 -0.584394 1.156304 -1.342830 0.363189
H -0.072490 -0.898430 -2.188298 -0.060688 -0.076054 0.510418
9
Properties=species:S:1:pos:R:3:forces:R:3 energy=-7263.226641384451
C -0.221060 -0.661040 1.211566 -1.133060 -0.750981 -0.569526
C -0.107916 0.420675 0.124510 3.555108 -0.413615 3.705119
C 0.989143 0.292342 -0.879342 0.281340 2.111612 -1.753481
O 0.775501 0.980432 -1.901934 1.349200 -1.695526 1.061189
O -1.357037 -1.028954 1.483121 0.040946 0.086307 0.540878
H 0.586917 -1.325019 1.607057 0.571819 0.753673 -0.106999
H -1.010033 0.332726 -0.289807 -3.792181 -0.415571 -2.477943
H -0.224149 1.439818 0.580992 0.854862 -0.424948 -0.139102
H 2.009993 -0.295928 -0.692789 -1.728034 0.749048 -0.260135
9
Properties=species:S:1:pos:R:3:forces:R:3 energy=-7263.386317614718
C 0.540553 0.986675 0.980434 -1.050454 -2.297798 -0.936380
C -0.064574 1.031265 -0.458315 -3.270926 -1.293744 1.119106
C -0.271400 -0.415696 -1.130479 2.776743 1.044664 -1.711618
O -0.955912 -1.370671 -0.870559 -0.169052 0.759523 0.373037
O 0.769391 -0.122920 1.462516 0.235015 1.575189 0.150932
H 0.640989 1.940920 1.529439 0.254062 0.187934 0.078453
H -1.156516 1.493151 -0.470229 1.883832 -0.495587 0.391561
H 0.515262 1.609921 -1.125765 0.871967 0.871784 -0.906673
H 0.521614 -0.427386 -2.080545 -1.531185 -0.351966 1.441581
9
Properties=species:S:1:pos:R:3:forces:R:3 energy=-7263.799150922725
C 1.026153 -0.499175 0.588389 1.252090 -0.463826 -1.911286
C -0.310892 -0.718367 -0.208008 -0.333157 0.653137 2.298062
C -0.555194 0.370569 -1.183885 -0.033620 1.385578 -1.419650
O -1.307894 1.349843 -1.032561 1.468663 -1.931938 -0.362007
O 1.139148 -0.553439 1.787429 -0.231129 0.171659 -0.126233
H 1.966976 -0.380620 -0.133698 -1.165928 0.003161 1.135242
H -0.238376 -1.676829 -0.735873 -0.024702 -0.156695 0.105922
H -1.076747 -0.669249 0.607478 0.138839 -0.465354 -0.661195
H 0.117772 0.178439 -2.145592 -1.071056 0.804278 0.941146
9
Properties=species:S:1:pos:R:3:forces:R:3 energy=-7263.670215222705
C 0.880675 0.057100 1.119871 -0.321355 1.931177 0.001768
C -0.250866 -0.419227 0.182834 -0.525852 -0.969285 0.598076
C -0.184900 -0.195235 -1.302610 0.889471 1.713372 -1.080568
O -1.043230 -0.096079 -2.180536 0.655209 -0.436649 1.633582
O 0.606783 0.621989 2.183998 0.564890 -1.110968 -1.222945
H 1.963853 0.034352 0.727670 -0.876645 -0.354356 0.374069
H -0.022935 -1.518486 0.079322 -0.559538 0.053551 0.648319
H -1.228392 -0.190568 0.672633 0.439807 -0.515590 -0.353296
H 0.912196 -0.030918 -1.535722 -0.265987 -0.311253 -0.599004
9
Properties=species:S:1:pos:R:3:forces:R:3 energy=-7263.684860647573
C 0.892321 -0.399654 1.136080 1.171365 1.239894 0.201807
C -0.314557 -0.785491 0.301904 -0.439652 -1.496691 0.389617
C -0.362234 -0.025279 -1.007328 -2.035913 0.422290 -1.360983
O -1.422555 0.362025 -1.541181 2.301380 -0.590494 1.071658
O 1.208347 0.794896 1.164595 -0.085883 -1.236341 0.315569
H 1.633456 -1.182940 1.621664 -1.420450 0.753717 -0.586732
H -0.124744 -1.820373 -0.055445 0.023626 -0.123561 0.038839
H -1.314141 -0.921237 0.850387 1.195271 0.734295 -0.527553
H 0.635787 -0.015403 -1.570681 -0.709743 0.296891 0.457777
9
Properties=species:S:1:pos:R:3:forces:R:3 energy=-7263.773695158529
C 0.193865 -0.088257 1.411205 0.406252 -0.578696 1.437025
C 0.007143 0.908296 0.350458 1.344623 1.130100 -1.676011
C 0.109638 0.228685 -1.032890 -0.866338 0.626008 0.494313
O -0.719288 0.290943 -1.917506 0.415534 -0.107996 0.111503
O 0.375116 -1.282338 1.233415 -0.254321 0.007020 -0.327924
H 0.317199 0.300881 2.449316 -0.260564 0.258148 0.092440
H -0.658257 1.786111 0.476187 -0.424963 -0.766848 0.084835
H 1.010579 1.440134 0.331631 -0.389266 -0.195168 0.345317
H 1.090376 -0.286266 -1.082465 0.029042 -0.372567 -0.561498
9
Properties=species:S:1:pos:R:3:forces:R:3 energy=-7263.731024177926
C -0.555685 -0.125883 0.897755 -1.220936 1.551711 -0.982424
C 0.642395 0.685228 0.356492 -1.310357 -0.909778 1.018825
C 0.626486 0.548557 -1.124420 1.716875 1.672190 -2.400932
O 0.005208 -0.148430 -1.901145 -0.868644 -0.742190 0.988451
O -0.661301 -0.908003 1.795681 0.635656 -0.841701 0.820681
H -1.512353 0.238948 0.357957 0.691997 -0.380910 0.240188
H 0.401611 1.719161 0.725829 0.424399 -0.363311 -0.601439
H 1.644531 0.398076 0.707460 -0.040597 -0.035510 0.204742
H 1.380530 1.211873 -1.664234 -0.028392 0.049498 0.711908
9
Properties=species:S:1:pos:R:3:forces:R:3 energy=-7263.720119120095
C -0.515847 -0.466714 1.181594 -1.519534 -1.246430 0.515678
C 0.565140 0.207725 0.322294 -1.220775 1.126949 2.222619
C 0.307264 0.283976 -1.139950 2.233686 -0.166010 -1.047786
O 1.252462 -0.012123 -1.888299 -1.738782 0.392259 0.303263
O -1.601177 -0.004804 1.534642 1.302619 0.084590 -0.553610
H -0.343162 -1.608836 1.455582 0.279092 1.564084 -0.470594
H 0.844995 1.208679 0.774697 -0.932142 -0.322050 -0.600679
H 1.449785 -0.307601 0.541227 1.663613 -1.304135 -0.284082
H -0.666672 0.679455 -1.494519 -0.067779 -0.129258 -0.084808
9
Properties=species:S:1:pos:R:3:forces:R:3 energy=-7263.674963617952
C -0.448373 -0.469790 1.336145 -0.732883 -1.249129 2.075121
C 0.642111 -0.114669 0.323661 0.127393 -0.497290 0.992072
C 0.280545 0.439529 -1.039340 2.901786 -0.655681 -0.350212
O 1.179898 0.366683 -1.901064 -2.075424 0.479263 0.789368
O -1.651077 -0.219553 1.292538 1.414134 0.038215 -0.537555
H -0.071527 -1.072739 2.370823 -0.266202 1.183759 -2.218072
H 1.279999 0.587457 0.930654 -0.208950 -0.099949 -0.642454
H 1.330867 -0.980279 0.116974 -0.491991 0.406237 0.423283
H -0.713305 0.857855 -1.152635 -0.667863 0.394574 -0.531552
9
Properties=species:S:1:pos:R:3:forces:R:3 energy=-7263.537047347123
C 0.788313 1.210679 0.528324 -0.783774 -1.454061 -0.545090
C 0.278959 0.210255 -0.655322 1.191719 -0.510972 0.358228
C -0.861994 -0.855346 -0.252491 0.155776 1.425178 -1.863598
O -1.558406 -1.327437 -1.154084 0.965779 0.225695 1.663329
O 1.366303 0.797078 1.511894 0.194259 -0.625313 -0.039156
H 0.568815 2.282327 0.552824 -0.424256 0.589114 -0.883140
H -0.174254 0.661210 -1.577204 0.634745 0.155010 0.639236
H 1.276464 -0.350131 -0.964555 -1.884032 0.776855 0.504725
H -1.069413 -0.913650 0.831277 -0.050217 -0.581506 0.165465
9
Properties=species:S:1:pos:R:3:forces:R:3 energy=-7263.738223384793
C 0.741748 -0.806832 0.919003 2.451721 0.364525 0.119640
C -0.086694 -0.685565 -0.318475 -1.681167 -2.189513 -1.083754
C -0.745258 0.685280 -0.427534 0.624835 -0.037267 -0.694053
O -1.772940 0.937280 -1.014882 -0.111199 -0.118817 0.268830
O 1.836230 -0.181116 0.881724 -2.282327 -1.435944 1.090928
H 0.388577 -1.488352 1.828040 0.561099 1.216031 -1.321018
H 0.577922 -0.819665 -1.211370 -0.002778 0.579327 0.561711
H -0.846854 -1.524340 -0.536849 0.593065 1.047374 0.813075
H -0.050975 1.447930 -0.027593 -0.153249 0.574284 0.244641
9
Properties=species:S:1:pos:R:3:forces:R:3 energy=-7263.309392246055
C 0.647115 0.721736 1.133341 -2.024767 -0.884718 1.226610
C 0.249735 -0.300286 -0.014965 -1.111222 1.973210 -0.214256
C -1.147396 -0.515738 -0.619217 -0.826273 0.387852 -0.511231
O -1.363086 -1.384475 -1.490009 0.145309 2.023428 2.241069
O 1.586047 1.463676 1.041124 0.467411 0.306544 -0.306020
H 0.018343 0.729445 2.201614 0.865904 -0.359132 -2.187882
H 0.694957 0.015786 -0.957955 1.009467 0.253706 -0.051008
H 0.601902 -1.247644 0.219681 1.148417 -2.094659 0.615614
H -1.870396 0.369535 -0.286065 0.325754 -1.606231 -0.812897
9
Properties=species:S:1:pos:R:3:forces:R:3 energy=-7263.666616034844
C 1.339673 -0.601834 0.175360 -1.116970 -1.975499 -0.310902
C -0.084561 -0.609900 -0.383424 1.521180 0.688676 -1.275176
C -1.121564 0.309860 0.172245 -1.355685 0.640974 -2.124290
O -2.151948 0.542903 -0.502448 1.777675 -0.251431 2.159514
O 2.005133 0.302606 0.563925 0.789964 2.180543 0.683845
H 1.774074 -1.624921 0.169232 0.174623 -0.394692 -0.085018
H 0.104236 -0.207715 -1.456244 -0.540607 -1.038185 1.086778
H -0.378698 -1.657925 -0.349857 -0.463218 -0.222144 -0.523170
H -0.762104 0.817058 1.087815 -0.786962 0.371758 0.388420
9
Properties=species:S:1:pos:R:3:forces:R:3 energy=-7263.276167898112
C -0.540126 -1.008591 0.696765 -0.354672 0.017050 1.093883
C -0.879333 0.297297 -0.005283 1.711830 0.968137 2.561097
C 0.544213 0.971412 -0.669632 -2.149332 -0.184974 -0.491495
O 0.823496 0.760136 -1.825918 -0.170042 -0.443148 0.067782
O 0.015001 -0.994606 1.785496 0.289892 -0.416873 -0.302979
H -0.993790 -1.976090 0.311322 0.447021 0.466478 -0.211454
H -1.651451 0.058403 -0.667681 -0.911180 0.051150 -2.115665
H -1.432315 0.842706 0.884043 1.487618 -0.194006 -1.597821
H 1.195717 1.697988 -0.146442 -0.351134 -0.263813 0.996653
9
Properties=species:S:1:pos:R:3:forces:R:3 energy=-7263.776942956396
C 0.365169 -0.355924 0.926786 -0.100089 -1.958238 1.810033
C -0.584073 0.526912 0.155812 -2.070039 1.240161 1.469258
C -0.349786 0.748647 -1.281854 0.949574 -1.011964 -1.136916
O 0.416094 -0.012502 -1.884462 -0.793393 1.097781 -0.061463
O 0.139343 -0.849104 2.063836 0.378746 1.543111 -2.596071
H 1.279812 -0.677357 0.344710 -0.326322 0.383619 0.382056
H -1.669457 0.250891 0.344201 0.764680 -0.514374 -0.379076
H -0.755971 1.524187 0.633883 0.761003 -0.082399 0.133417
H -0.896057 1.621186 -1.795728 0.435840 -0.697697 0.378761
9
Properties=species:S:1:pos:R:3:forces:R:3 energy=-7263.829696301457
C -0.351745 -0.421273 1.159446 0.830110 0.762206 0.274340
C 0.473687 0.320314 0.094751 -0.382754 -0.230302 -0.755654
C -0.309040 0.437955 -1.227687 -1.356771 0.644782 3.546921
O 0.127318 0.312771 -2.323406 0.303900 -0.138185 -1.685081
O 0.052867 -0.630851 2.283849 0.160875 -0.143072 0.130940
H -1.371293 -0.723612 0.894213 -0.577648 -0.217938 -0.418263
H 0.774461 1.328748 0.453883 -0.207023 -0.300466 -0.046934
H 1.373280 -0.232581 -0.149956 0.675206 -0.257433 0.286692
H -1.408687 0.661528 -0.886153 0.554105 -0.119590 -1.332962
9
Properties=species:S:1:pos:R:3:forces:R:3 energy=-7263.676356018552
C -0.112944 -1.345303 0.454223 1.587042 0.649023 -2.470581
C 0.677471 -0.107068 0.217719 1.904646 1.360581 0.609161
C 0.006316 1.039620 -0.475005 -1.703463 2.368636 -2.391674
O 0.438851 1.711295 -1.453102 -0.366747 -2.007047 2.590637
O -0.969327 -1.348220 1.262034 -2.575017 -0.725482 2.275079
H 0.144288 -2.147066 -0.238479 -0.044889 -1.085192 -0.242162
H 0.869197 0.167224 1.270283 -0.111446 0.638933 -0.004518