9
Properties=species:S:1:pos:R:3:forces:R:3 energy=-7263.512982126002
C 1.029675 0.042611 0.782500 2.514396 1.209735 -0.024673
C -0.334254 -0.224220 0.402926 -2.327150 2.515192 2.317111
C -0.810524 0.121264 -0.948813 -2.155470 0.757169 1.100120
O -1.727076 0.885817 -1.199559 0.581239 0.384424 -0.045254
O 1.857669 -0.831337 0.960787 0.221150 -0.050754 0.196855
H 1.342629 1.167223 0.879108 -0.468980 -1.155225 -0.086169
H -0.595344 -1.238807 0.669760 -0.191136 -0.632358 -0.149550
H -0.950911 0.528533 1.021023 0.512101 -1.101289 -0.208071
H -0.499329 -0.601890 -1.599291 1.313851 -1.926894 -3.100370
9
Properties=species:S:1:pos:R:3:forces:R:3 energy=-7263.396428066742
C 1.046400 0.032633 1.075683 1.436431 -3.337544 -2.643358
C -0.187381 0.644109 0.613031 -3.033974 -0.364408 2.995709
C -1.013578 -0.143831 -0.432879 0.785273 0.674223 -0.421717
O -1.272681 0.421586 -1.472166 -0.350732 0.608362 -0.633955
O 1.407074 -0.934744 0.341449 0.130888 1.288481 1.923279
H 1.770321 0.425083 1.823827 -0.503304 0.178360 0.231517
H -0.864200 1.079316 1.468781 0.909448 -0.705857 -1.233246
H 0.146023 1.471067 0.091388 0.558696 2.409775 -1.363953
H -1.345248 -1.179373 -0.400375 0.067273 -0.751392 1.145726
9
Properties=species:S:1:pos:R:3:forces:R:3 energy=-7263.552844584573
C 1.093572 0.136518 0.472863 -2.248527 -0.871172 -1.053599
C -0.057602 -0.909112 0.214020 -0.486741 2.890369 1.419764
C -1.173495 -0.494011 -0.806258 0.076125 1.279299 -1.549380
O -1.289249 0.595268 -1.406271 0.512726 -1.853181 1.732026
O 1.416584 0.585363 1.527769 0.330233 0.019978 2.203913
H 1.486652 0.583131 -0.387873 1.098116 0.648170 -2.276157
H 0.320591 -1.791071 -0.178578 1.045026 -2.141407 -0.851951
H -0.355941 -1.101122 1.263582 -0.748014 -0.268646 -0.430550
H -1.835350 -1.337798 -1.203244 0.421055 0.296590 0.805934
9
Properties=species:S:1:pos:R:3:forces:R:3 energy=-7263.495951356510
C 0.329019 -0.376902 0.982397 0.762154 0.624686 -0.694306
C 0.591506 0.497517 -0.352185 -0.304730 -1.122246 2.322058
C -0.569497 0.663886 -1.244759 0.578427 -0.399422 1.526467
O -1.633959 0.248297 -0.893794 -2.752228 -0.958310 0.677777
O 1.304411 -0.979980 1.443722 -2.188830 0.675074 -0.219646
H -0.745084 -0.221411 1.414696 1.439291 -0.690084 -0.089785
H 0.937689 1.402574 0.139188 0.329456 0.767712 -0.360028
H 1.405611 -0.035222 -0.776084 1.227212 -0.161077 -0.907388
H -0.551636 1.120901 -2.184043 0.909249 1.263668 -2.255148
9
Properties=species:S:1:pos:R:3:forces:R:3 energy=-7263.719952794089
C -0.825922 -0.379516 0.858421 -1.450759 -1.617349 -5.455709
C 0.302335 -0.762325 -0.086833 1.077712 0.268345 -0.290411
C 0.771888 0.495599 -0.809776 -0.195455 -0.020340 -1.396561
O 0.479028 0.861047 -1.951218 0.191913 -0.485717 1.461738
O -0.708615 -0.251404 1.997692 0.138524 1.035693 5.411788
H -1.867294 -0.411562 0.259622 1.256570 0.458912 0.962051
H 1.256572 -1.170362 0.401999 -1.441536 0.264941 -0.223697
H -0.184271 -1.445284 -0.776618 0.253597 -0.416221 -0.486333
H 1.478963 1.051556 -0.167673 0.169433 0.511736 0.017135
9
Properties=species:S:1:pos:R:3:forces:R:3 energy=-7263.584072972190
C 0.808326 -0.030697 0.886749 2.278885 -3.725520 0.514117
C -0.501574 -0.633082 0.281981 1.314111 0.922666 -0.223135
C -0.827030 0.117284 -1.012534 -1.145688 2.033956 0.231919
O -1.395993 1.249974 -1.087001 1.662802 -3.408625 0.166703
O 1.856576 -0.726371 0.903882 -2.033005 1.972023 -0.413037
H 0.717071 0.774936 1.616213 -0.160614 1.004307 -0.231317
H -0.298740 -1.721245 0.202653 -0.248408 0.502200 -0.369963
H -1.137244 -0.399734 1.110514 -1.298750 0.066898 0.407561
H -0.393987 -0.452464 -1.883942 -0.369333 0.632095 -0.082848
9
Properties=species:S:1:pos:R:3:forces:R:3 energy=-7263.058512331422
C -0.101364 0.366995 1.290716 0.479196 -1.474732 -3.129952
C 0.539223 0.396035 -0.169017 -1.733724 -3.181898 -0.905412
C 0.068734 -0.709007 -1.455355 0.065461 -0.240948 1.670620
O -1.102775 -0.941758 -1.760978 2.370232 0.567555 0.446462
O 0.615071 0.893505 2.081942 0.164463 0.769003 2.290630
H -1.043814 -0.233408 1.473743 0.259992 0.602847 0.109997
H 0.107433 1.219370 -0.669659 -0.065031 1.826762 -0.459433
H 1.618788 0.388227 0.006093 0.013030 0.301520 -0.442012
H 1.020923 -1.251238 -1.929088 -1.553618 0.829890 0.419100
9
Properties=species:S:1:pos:R:3:forces:R:3 energy=-7263.759211035289
C 0.824908 0.536165 0.619123 -0.688885 -0.987317 -3.936713
C 0.103090 -0.817489 0.384661 0.929092 0.213865 0.836227
C -0.712774 -0.931279 -0.876332 1.256731 0.921670 0.371446
O -0.870557 -0.050257 -1.690107 -0.399017 0.225079 -0.352314
O 0.660060 1.191275 1.586572 0.211360 1.485603 2.199699
H 1.385070 0.935132 -0.377297 -0.475517 -0.665426 1.723801
H 0.967206 -1.527513 0.241856 -0.731253 -0.089495 0.281964
H -0.548866 -1.119914 1.263223 0.843158 0.170390 -0.611896
H -1.028320 -1.949267 -1.003097 -0.945668 -1.274369 -0.512213
9
Properties=species:S:1:pos:R:3:forces:R:3 energy=-7263.300222110583
C -0.043592 -0.561140 1.093867 1.115689 0.547805 2.492305
C 0.532310 -0.241265 -0.204810 3.791800 0.378560 0.594645
C -0.334273 0.692950 -0.935480 -0.380977 1.141672 -4.159452
O -0.746719 0.365806 -2.091413 0.465774 1.163375 3.108722
O 0.578243 -0.267835 2.151671 -2.369976 -1.188359 -1.975761
H -1.073398 -0.996734 0.899960 0.245676 -0.052595 1.394894
H 1.665321 0.077614 0.047503 -2.307902 0.242421 -0.701202
H 0.707941 -1.115895 -0.810616 -0.443834 -0.748818 -0.477546
H -0.467545 1.784918 -0.540192 -0.116250 -1.484060 -0.276606
9
Properties=species:S:1:pos:R:3:forces:R:3 energy=-7263.598947548810
C 0.281210 0.228112 1.184955 -0.525832 0.796321 1.724385
C 0.224815 0.470750 -0.246575 -0.517889 -1.577912 -2.561572
C -0.888601 -0.254745 -1.044892 0.352032 0.039069 0.108059
O -0.758761 -1.276957 -1.728488 -0.433377 1.755973 1.188974
O 1.095271 0.856822 1.815340 0.979091 0.551978 1.173868
H -0.364995 -0.464094 1.752764 -0.397521 -0.564516 -0.410632
H 0.260603 1.538269 -0.534392 0.103093 -0.266959 0.316809
H 1.161115 -0.049167 -0.472050 0.488383 0.215392 -0.846757
H -1.841040 0.352568 -0.855782 -0.047981 -0.949345 -0.693134
9
Properties=species:S:1:pos:R:3:forces:R:3 energy=-7263.495514541596
C 0.477088 -0.602053 0.657571 2.855114 -0.298085 1.529721
C 0.503595 0.635796 -0.188182 -0.130436 0.540427 1.382302
C -0.799760 0.894780 -0.718175 -4.567802 2.039614 -1.638439
O -1.602845 0.057938 -1.119121 0.797786 -0.289888 0.154477
O 1.457983 -0.958900 1.319167 -0.792084 0.167246 -0.912062
H -0.470509 -1.061841 0.862979 -1.203102 -0.505254 -0.259675
H 0.643452 1.458692 0.519638 0.378431 0.235272 0.496701
H 1.275582 0.837563 -0.893400 1.031145 -0.459984 -0.869218
H -1.306557 2.003279 -0.700082 1.630947 -1.429348 0.116192
9
Properties=species:S:1:pos:R:3:forces:R:3 energy=-7263.261794285531
C -0.271264 -1.016929 0.435385 -1.979928 -0.646664 -2.828157
C -0.836308 0.342829 0.218686 0.261803 0.442234 0.995886
C 0.069249 1.153460 -0.686654 -1.839804 3.814328 5.174986
O 0.794144 0.786983 -1.504057 3.163209 -2.830354 -4.556607
O 0.171801 -1.253545 1.507316 1.436340 -1.143279 2.478276
H -0.327021 -1.779169 -0.397904 0.313885 0.242274 0.233449
H -1.798237 0.615111 -0.157217 -1.418525 -0.878001 -0.979746
H -1.004813 0.606078 1.293710 0.840427 1.104975 -0.567497
H 0.168456 2.252558 -0.402074 -0.777406 -0.105513 0.049410
9
Properties=species:S:1:pos:R:3:forces:R:3 energy=-7263.761268001339
C 0.597800 -0.436759 1.053836 0.739743 0.574794 -2.054910
C 0.119974 0.910060 0.408795 0.564230 -0.406977 -0.251576
C -1.029950 0.817054 -0.611781 -0.212740 -1.096373 -2.812143
O -1.254102 -0.112565 -1.417790 0.620249 1.353507 2.115696
O 1.543954 -1.109621 0.649408 -1.052251 0.950948 0.581185
H -0.062799 -0.735366 1.837912 -0.639577 -0.782639 1.318889
H -0.213024 1.667659 1.129726 0.123563 -0.165348 0.437760
H 1.027077 1.330701 -0.091432 -0.575026 -0.072117 -0.142063
H -1.633843 1.761992 -0.818222 0.431808 -0.355795 0.807163
9
Properties=species:S:1:pos:R:3:forces:R:3 energy=-7263.016839863297
C 0.395406 -0.152074 1.351675 -3.903150 -4.093665 0.226591
C 0.222162 -0.875852 0.070065 -0.382753 -0.667653 -3.603341
C -0.427515 0.177667 -1.072624 2.905067 1.476505 0.651252
O -1.139454 -0.023467 -2.020852 -0.029946 -0.413398 0.931186
O 0.954608 0.809466 1.712607 2.668995 3.385390 0.269745
H -0.327355 -0.684103 2.014589 -0.071627 0.090032 0.993596
H 1.259298 -1.029395 -0.437670 -1.496952 -0.123719 0.514754
H -0.476099 -1.868547 0.097422 1.897815 2.191907 0.189319
H 0.212007 1.238099 -0.941561 -1.587449 -1.845399 -0.173102
9
Properties=species:S:1:pos:R:3:forces:R:3 energy=-7263.853818527013
C 0.799234 -0.071134 0.680231 -0.224895 0.323406 1.458436
C -0.006469 -0.694633 -0.392915 -0.890698 0.813433 -0.822614
C -1.084754 0.158475 -0.945302 -0.396548 1.566752 -1.618241
O -1.334436 1.319921 -0.635559 -0.013379 -0.880347 0.113275
O 1.619458 -0.743671 1.261663 0.997154 -0.194748 0.424752
H 0.545266 0.971654 1.076261 0.104929 -0.585778 -0.761291
H 0.589417 -1.024329 -1.250554 0.295329 -0.209392 -0.016097
H -0.581476 -1.550953 -0.069156 0.196997 -0.958204 0.601194
H -1.599670 -0.306109 -1.854325 -0.068890 0.124876 0.620587
9
Properties=species:S:1:pos:R:3:forces:R:3 energy=-7263.559938645195
C -0.533286 -1.269543 0.793206 0.086859 1.492973 0.010584
C -0.657742 -0.257577 -0.424910 2.626882 -2.836561 -0.481122
C 0.253241 1.014705 -0.479898 -1.749356 1.493252 -0.261110
O 0.610336 1.504526 -1.546214 0.233358 -1.046094 0.497287
O 0.279094 -1.029295 1.670705 -0.331393 -0.679555 -0.103697
H -1.237283 -2.196691 0.848516 0.691265 0.990192 -0.353823
H -0.283593 -0.945847 -1.301213 -0.850569 1.211204 0.962879
H -1.688851 -0.034066 -0.591710 -0.997726 0.475795 -0.340368
H 0.264656 1.739803 0.398149 0.290680 -1.101205 0.069370
9
Properties=species:S:1:pos:R:3:forces:R:3 energy=-7263.870453538931
C 1.174199 0.204872 -0.045470 -1.506015 0.874192 0.629045
C -0.109972 -0.674048 -0.316558 0.787828 -1.203760 -0.802564
C -1.496216 -0.277829 0.148275 1.084521 1.518268 -0.145918
O -1.918756 0.860220 0.255261 -0.005186 -0.159275 -0.046780
O 2.325711 -0.149309 -0.043826 0.110972 -0.740585 -0.227553
H 0.930108 1.283927 0.197779 -0.103307 -0.392717 -0.220828
H -0.137440 -0.772904 -1.448824 -0.102317 0.166576 0.788169
H -0.026101 -1.746566 0.024112 0.616652 0.733957 -0.238379
H -2.080280 -1.146879 0.417831 -0.883149 -0.796656 0.264808
9
Properties=species:S:1:pos:R:3:forces:R:3 energy=-7263.475277018775
C 0.465790 -0.575567 0.745831 -0.205895 -3.688046 4.303907
C 0.500382 0.544354 -0.156961 0.939324 1.353055 -1.152077
C -0.588254 0.306116 -1.199271 1.070685 1.592719 1.162208
O -1.735353 0.604255 -1.010385 -1.198792 -0.014367 -0.049239
O 1.381178 -0.856206 1.547961 -1.489790 0.422635 -1.703094
H -0.600953 -1.251715 0.874057 2.196024 1.620507 -0.651025
H 0.362940 1.430056 0.500987 -0.533012 -0.091193 -0.381137
H 1.559701 0.679458 -0.542592 -0.987839 -0.323046 0.015320
H -0.204609 -0.133505 -2.092017 0.209295 -0.872264 -1.544863
9
Properties=species:S:1:pos:R:3:forces:R:3 energy=-7263.415382707622
C 0.500871 -0.629093 1.272141 -0.190294 0.211772 -1.121797
C 0.580081 -0.620491 -0.221267 0.407562 1.577121 -1.041046
C -0.561121 0.324395 -0.788152 -0.344784 -0.284098 3.916862
O -0.921637 0.314391 -1.913659 -0.336977 0.289153 -1.912386
O 0.440291 0.526450 1.677536 -0.024558 -0.864145 1.788253
H 0.456707 -1.624850 1.822788 0.016128 0.930931 0.190790
H 1.570363 -0.128157 -0.382339 -0.483241 0.114883 -0.165301
H 0.579073 -1.402101 -0.946301 -0.013188 -1.686405 -0.027148
H -1.161492 0.833533 0.123274 0.969351 -0.289211 -1.628228
9
Properties=species:S:1:pos:R:3:forces:R:3 energy=-7263.542423194326
C -0.531299 -0.726017 1.078671 -0.494494 0.594463 -0.340966
C -0.295795 -0.927402 -0.389595 -1.677583 3.671166 -1.738171
C 0.848507 0.006034 -0.973997 -0.881461 -1.908763 1.094336
O 0.664511 1.155708 -1.266201 0.653053 0.176870 -0.293896
O -0.669354 0.385253 1.541908 0.024581 0.355009 0.513096
H -0.635944 -1.613889 1.722575 0.134690 -0.500227 0.118766
H -0.084930 -1.879000 -0.660342 0.961004 -3.541143 -0.546668
H -1.259092 -0.688999 -1.044737 1.475554 -0.068025 1.557191
H 1.800102 -0.647202 -0.998768 -0.195344 1.220651 -0.363687
9
Properties=species:S:1:pos:R:3:forces:R:3 energy=-7263.308576477135
C 0.595606 -0.038041 0.899866 -0.629272 -2.639010 5.921949
C 0.725620 0.707670 -0.302610 -1.170119 1.346539 -0.519699
C -0.571238 0.638291 -1.130951 -0.953080 -2.023942 0.556589
O -1.565880 -0.028850 -0.839384 1.218283 1.164041 -0.353899
O 0.884502 -1.196013 1.311384 -0.111332 2.331157 -2.327136
H 0.144464 0.607945 1.744810 0.041928 -0.334616 -0.711641
H 0.661537 1.797223 0.087793 1.114291 -1.096926 -1.146017
H 1.541441 0.299677 -0.882436 0.691866 0.621294 -0.723400
H -0.470178 1.153320 -2.082865 -0.202565 0.631464 -0.696746
9
Properties=species:S:1:pos:R:3:forces:R:3 energy=-7263.406331415061
C -0.047484 -0.237714 1.438769 1.267332 0.604272 -0.186321
C 0.711172 -0.226234 0.160344 0.187046 -0.121090 3.232286
C -0.021672 0.318713 -0.947553 0.013139 2.380537 -1.674374
O 0.607357 0.508359 -1.963538 0.328741 -0.102802 -1.685359
O -1.226706 -0.396163 1.358972 -2.491833 -0.440829 1.127631
H 0.525150 0.099911 2.373151 -0.510399 -0.482896 -0.267346
H 1.637194 0.221384 0.457677 1.096674 1.144400 -0.765252
H 1.034532 -1.183814 -0.093144 0.419321 -2.294092 -0.477416
H -1.017631 0.812979 -0.905244 -0.310022 -0.687500 0.696151
9
Properties=species:S:1:pos:R:3:forces:R:3 energy=-7263.775743213291
C 0.615777 -0.442513 0.792451 -1.728903 0.066268 -0.363438
C 0.512799 -0.204059 -0.725646 -0.625792 0.602907 0.061567
C -0.784554 0.737563 -1.034604 0.028285 -2.577463 0.264377
O -1.885931 0.375325 -0.618472 1.271378 1.003910 -0.528700
O 1.571463 -0.453990 1.523400 1.031002 0.016672 -0.223351
H -0.405875 -0.538110 1.210326 -0.291725 -0.227363 0.300661
H 1.417232 0.274320 -1.031294 0.936624 0.638626 -0.496427
H 0.504997 -1.183784 -1.282887 -0.576956 0.658483 0.470267
H -0.625659 1.612766 -1.728053 -0.043914 -0.182041 0.515043
9
Properties=species:S:1:pos:R:3:forces:R:3 energy=-7263.500397876619
C -0.009294 -0.134953 1.046131 -0.339006 1.225411 1.410139
C 0.346421 0.707351 -0.083649 -1.303073 -0.913317 -2.792247
C 0.033706 0.103820 -1.472881 -0.402450 -2.532734 -1.306500
O -0.800897 -0.829607 -1.645686 1.868925 2.603921 0.572091
O 0.465258 0.192149 2.110985 0.780927 -0.345689 1.424557
H -0.801150 -0.829834 1.039033 -1.277492 -1.667122 -0.557780
H -0.339353 1.561516 -0.060107 0.272025 0.581934 0.295902
H 1.366444 0.906381 0.127068 1.277198 1.110087 -0.473324
H 0.681305 0.423409 -2.409906 -0.877053 -0.062491 1.427161
9
Properties=species:S:1:pos:R:3:forces:R:3 energy=-7263.539345082047
C 0.275355 0.622063 1.156761 1.110268 1.687573 0.005767
C -0.754821 0.016438 0.211194 0.132340 0.143648 -0.804842
C -0.486650 0.184854 -1.364139 -1.111002 0.903105 1.861922
O -0.054524 -0.744184 -1.969467 0.875788 -1.616088 -0.861487
O 0.939588 0.008061 1.967213 -0.385717 -0.957477 0.127251
H 0.609799 1.725834 1.107462 -1.097428 -0.594513 -0.592244
H -0.600051 -1.036516 0.248226 0.321233 -1.301958 0.477947
H -1.805654 0.106783 0.573866 0.379819 0.782673 -0.454023
H -0.742281 1.078238 -1.939272 -0.225301 0.953037 0.239709
9
Properties=species:S:1:pos:R:3:forces:R:3 energy=-7263.779203202692
C 0.680948 0.206436 0.818167 -0.209920 0.645470 1.632138
C -0.412356 0.747810 -0.044411 -2.189484 -0.025302 1.855607
C -0.902841 -0.183415 -1.163103 0.558133 2.055453 0.606087
O -0.155366 -0.956569 -1.693075 0.133449 -1.250295 -0.739513
O 0.752701 0.210905 2.059600 -0.351109 0.031839 -2.118478
H 1.417141 -0.171159 0.152972 1.872831 -1.075199 -0.333240
H -1.243034 0.986568 0.663408 -0.064676 -0.048666 -0.436193
H -0.181163 1.723956 -0.472191 0.447963 0.225858 -0.359483
H -1.918478 0.112302 -1.522708 -0.197186 -0.559158 -0.106924
9
Properties=species:S:1:pos:R:3:forces:R:3 energy=-7263.781858149873
C 0.851729 -0.386783 1.115188 0.786963 1.322906 0.945132
C -0.449235 -0.626755 0.343634 -0.298398 -0.434178 -0.094422
C -0.858143 0.320604 -0.740886 1.232592 0.069941 0.376125
O -1.118624 0.019758 -1.875133 -0.471912 -0.281085 -0.911654
O 1.562633 0.623369 1.178035 -1.264968 -0.626577 -0.995781
H 1.177717 -1.156659 1.831119 -0.393880 -0.970205 -0.134744
H -0.635557 -1.668640 0.048780 0.651717 -0.184660 -0.172470
H -1.309847 -0.471301 0.998482 -0.031152 0.114213 1.057225
H -0.852247 1.345821 -0.368087 -0.210961 0.989644 -0.069411
9
Properties=species:S:1:pos:R:3:forces:R:3 energy=-7263.721832531053
C 0.720495 -0.651666 0.902290 0.234999 -1.330839 0.138248
C 0.595425 -0.107134 -0.562816 0.320239 -1.409005 1.062276
C -0.792522 -0.053306 -1.219887 1.280684 -0.870956 -0.650474
O -1.548075 0.858694 -1.095141 -1.266815 1.367316 0.386653
O 1.029669 -0.069646 1.923442 -0.364016 0.374750 -0.785796
H 0.700760 -1.805151 0.926449 -0.369683 0.830777 -0.021059
H 1.207471 0.793727 -0.560080 -0.318671 0.505392 -0.426492
H 1.108292 -0.950297 -1.058917 0.269685 0.395112 -0.336516
H -1.026105 -0.885248 -1.964314 0.213578 0.137453 0.633159
9
Properties=species:S:1:pos:R:3:forces:R:3 energy=-7263.704382137624
C 1.112932 0.010692 0.712429 -0.406595 1.398531 0.705183
C 0.028160 -0.399182 -0.215504 -0.385284 -1.037192 -2.229936
C -0.857766 0.644705 -0.867079 -1.228653 -1.563040 0.010473
O -2.071176 0.518123 -0.959946 0.384318 0.361078 0.371336
O 1.806801 -0.736754 1.353242 0.507151 -0.702258 0.249717
H 1.190736 1.137142 0.887742 0.108341 -0.469768 -0.341369
H 0.528256 -0.710329 -1.206104 -0.000733 0.057024 1.048926
H -0.568446 -1.316977 0.021491 0.425052 0.618115 0.483876
H -0.331723 1.308260 -1.535300 0.596402 1.337510 -0.298206
9
Properties=species:S:1:pos:R:3:forces:R:3 energy=-7263.726179584390
C 0.968299 -0.118984 0.950229 1.631784 1.437001 -0.636436
C 0.402523 1.024571 0.065091 2.145477 -1.581036 -1.747926
C -0.250660 0.276782 -1.170253 1.224220 0.921286 0.369128
O -1.380368 -0.103266 -1.268055 -1.094611 -0.165241 0.240951
O 0.308334 -0.976220 1.420012 -2.045804 -2.068211 1.243476
H 2.080602 -0.192171 1.136804 -0.105224 0.631282 -0.386637
H -0.243271 1.652122 0.644818 -0.597209 0.534472 0.240625
H 1.355497 1.499522 -0.338179 -1.245285 0.216913 0.438411
H 0.474443 0.087142 -2.009335 0.086653 0.073532 0.238407
9
Properties=species:S:1:pos:R:3:forces:R:3 energy=-7263.758322030279
C 0.967483 -0.638688 0.548920 0.459253 0.183485 -0.371854
C -0.404177 -0.008976 0.587029 -0.077305 0.311296 1.734513
C -0.981488 0.659169 -0.621500 2.686627 3.150697 0.906515
O -1.619987 0.151181 -1.463387 -2.308771 -2.151660 -2.371321
O 1.996735 -0.167708 0.973491 0.351745 1.289558 0.695946
H 1.117550 -1.605750 0.139114 -0.735538 -1.778966 -1.008001
H -1.139925 -0.766145 0.885050 0.069169 -0.240401 0.089729
H -0.277966 0.728387 1.409548 -0.397968 -0.034443 -0.314046
H -0.698416 1.769503 -0.787647 -0.047211 -0.729566 0.638519
9
Properties=species:S:1:pos:R:3:forces:R:3 energy=-7263.456927247581
C 1.183346 -0.055563 0.305103 -4.007064 -0.891867 0.623674
C -0.483865 -0.489342 0.390280 1.584051 0.981125 2.418176
C -1.420366 -0.023392 -0.638845 -0.144946 -1.301863 -1.958911
O -1.220115 1.021340 -1.217413 -0.080638 1.408870 -0.268405
O 1.893935 -0.492030 1.152718 1.058866 -0.164135 0.321743
H 1.378296 0.606334 -0.509278 0.772592 0.884175 -1.049864
H -0.403870 -1.553639 0.596789 -0.505154 -0.449597 0.003908
H -0.840155 0.020951 1.376952 0.683290 -0.763242 -1.211811
H -2.241522 -0.702948 -1.111251 0.639003 0.296534 1.121490
9
Properties=species:S:1:pos:R:3:forces:R:3 energy=-7263.706453496892
C 0.800526 -0.527409 0.595673 0.978053 1.556395 1.442586
C 0.318669 0.648421 -0.264166 2.556350 0.134587 0.943687
C -0.943687 0.586169 -1.021619 -0.934465 0.723728 -0.895434
O -1.879909 -0.141616 -0.791991 -0.509766 -0.713146 0.494969
O 1.688167 -0.514935 1.456167 -0.960681 0.573448 -1.244560
H 0.284709 -1.405157 0.394606 -1.223170 -2.511913 -0.530862
H 0.621964 1.556807 0.314870 -0.693455 -0.023576 -0.602293
H 1.069597 0.607276 -1.072470 0.345381 0.304743 -0.195776
H -1.025610 1.236673 -1.956298 0.441753 -0.044264 0.587685
9
Properties=species:S:1:pos:R:3:forces:R:3 energy=-7263.593962398935
C 0.212462 -0.241199 1.360816 -0.763036 -4.618534 -2.320917
C -0.477148 0.625974 0.368059 0.375622 1.348690 0.307639
C -0.215144 0.204215 -1.088365 -0.260585 -0.752064 -0.322432
O 0.281438 0.966745 -1.905047 -0.473300 -0.838175 0.650093
O 0.150489 -1.493511 1.310911 -0.496413 1.644070 0.192841
H 0.935278 0.111400 1.999572 1.832189 1.852726 2.069727
H -1.572173 0.480803 0.638880 0.814854 0.825283 -0.541528
H 0.035574 1.650250 0.471937 -1.541189 -0.786470 -0.048590
H -0.538709 -0.898611 -1.311851 0.511858 1.324474 0.013168
9
Properties=species:S:1:pos:R:3:forces:R:3 energy=-7263.722788957382
C -0.525516 -0.451602 1.029454 0.973214 -0.425293 1.702323
C -0.280022 0.756191 0.039394 2.102708 -1.032627 1.610324
C -0.128697 0.253264 -1.377831 -0.142900 0.153791 0.449945
O 0.962949 0.188593 -1.900894 -0.113427 -0.172581 -0.474565
O -0.092924 -0.696678 2.193674 -1.157802 1.314200 -3.670491
H -1.141200 -1.171949 0.461264 -0.375706 -0.649361 0.524593
H -1.134790 1.395164 0.114905 -0.771734 0.788101 0.170836
H 0.693541 1.230683 0.333625 -0.834542 0.111448 -0.120036
H -1.096920 -0.035543 -1.875338 0.320189 -0.087678 -0.192929
9
Properties=species:S:1:pos:R:3:forces:R:3 energy=-7263.576794553813
C -0.250488 -1.101595 0.496555 -0.124131 -0.756519 1.196853
C -0.817321 0.085703 -0.026539 -1.969722 3.282276 1.163544
C 0.294826 0.999687 -0.475195 -0.072137 -0.474386 -2.364216
O 0.594229 1.120847 -1.654223 -0.153980 0.203181 0.148887
O 0.133589 -1.104828 1.641898 1.092513 -1.239321 0.991694
H -0.364506 -1.917868 -0.199499 0.643591 -1.566717 -0.333497
H -1.628229 -0.158697 -0.697164 0.004106 0.332758 -1.051830
H -1.290485 0.557064 0.894423 0.354861 -0.112145 -0.886516
H 0.939663 1.459075 0.259578 0.224898 0.330872 1.135082
9
Properties=species:S:1:pos:R:3:forces:R:3 energy=-7263.463351655088
C -0.132533 -0.764633 0.724716 -0.328795 -0.721631 -0.257261
C 0.596615 0.579324 0.377243 -1.178934 -0.956928 -0.849036
C 0.497220 0.867426 -1.189506 3.737740 -0.072556 5.483062
O -0.397766 0.454985 -1.780163 -5.180280 -1.700731 -3.657857
O -0.508522 -1.048723 1.850638 0.156079 0.347177 -0.624587
H -0.199522 -1.593596 -0.114333 0.163865 1.301681 0.822446
H 0.160593 1.407771 0.968786 0.403107 -0.272187 0.014694
H 1.586397 0.250799 0.712177 0.626650 0.846092 -0.030747
H 1.381843 1.232244 -1.642110 1.600567 1.229084 -0.900715
9
Properties=species:S:1:pos:R:3:forces:R:3 energy=-7263.769079941514
C -0.083114 -0.185471 1.095844 2.392191 0.435154 -2.543469
C -0.686142 -0.239761 -0.283044 -0.115781 0.168242 -2.025910
C 0.172979 0.459393 -1.332883 0.154560 -0.369010 0.463319
O 1.316192 0.107084 -1.545213 0.391025 0.071961 -0.288974
O -0.768381 -0.122074 2.035603 -2.170078 0.183845 4.031462
H 1.075494 -0.245596 1.156518 -0.999606 -0.011021 -0.308899
H -0.687804 -1.323432 -0.411228 0.406159 -0.515627 -0.634884
H -1.738548 0.015158 -0.504868 0.054143 0.372215 1.142529
H -0.241050 1.385503 -1.827220 -0.112614 -0.335760 0.164826
9
Properties=species:S:1:pos:R:3:forces:R:3 energy=-7263.727488409397
C -0.010982 -0.897765 0.915617 -1.903065 1.306101 0.938237
C 0.831887 0.220706 0.383779 -3.104245 -0.371263 -1.666788
C -0.004574 0.775505 -0.862702 -0.938626 -0.542894 1.619404
O 0.297433 0.617598 -2.007950 0.583530 0.045328 -0.905410
O -1.030441 -0.702962 1.621903 2.137351 -0.918112 -1.331024
H 0.332848 -1.838435 0.452097 -0.488463 -0.812658 0.408502
H 0.903301 1.000500 1.052070 0.407216 1.955309 1.779763
H 1.699649 -0.156116 -0.008731 2.670362 -0.742228 -0.849109
H -1.029540 1.176730 -0.571270 0.635939 0.080417 0.006425
9
Properties=species:S:1:pos:R:3:forces:R:3 energy=-7263.728605486288
C 0.517249 0.613516 0.783572 0.343084 -1.815790 0.304228
C 0.750385 -0.689173 -0.049511 -3.357906 1.834927 -0.558593
C -0.445305 -0.757141 -1.112450 0.366940 2.964903 0.684792
O -0.970730 0.245993 -1.621210 0.986619 -1.742785 0.536602
O 0.234088 0.534990 1.959385 -0.053714 -0.105330 0.461583
H 0.533183 1.582052 0.327167 0.193836 1.003158 -1.036032
H 1.650084 -0.801460 -0.566113 1.911058 0.131155 -0.901127
H 0.574326 -1.512378 0.593547 0.080047 -1.088660 0.958992
H -0.865130 -1.740581 -1.213674 -0.469963 -1.181577 -0.450445
9
Properties=species:S:1:pos:R:3:forces:R:3 energy=-7263.516848347852
C 1.039756 -0.499061 0.610081 2.184518 -1.322016 2.739841
C -0.274831 -0.544751 -0.037439 -0.115568 1.912408 -1.972013
C -0.396492 0.625224 -1.177186 -5.509115 -0.482188 2.683065
O -1.543688 1.172453 -1.276817 3.980611 -1.371878 -0.339781
O 1.201610 -0.781745 1.827788 -0.310559 0.915552 -2.581847
H 1.992085 -0.317860 -0.033321 -1.061506 -0.009424 0.486910
H -0.387471 -1.535601 -0.527576 -0.173821 0.282633 0.130939
H -1.059244 -0.291017 0.683631 -0.203130 -0.521700 -0.029196
H 0.492695 0.931317 -1.664732 1.208569 0.596614 -1.117920
9
Properties=species:S:1:pos:R:3:forces:R:3 energy=-7263.342641528362
C 0.871203 -0.891899 0.507683 -0.328412 2.559245 2.788487
C 0.746871 -0.105001 -0.760967 -1.529099 -0.602434 -2.104292
C -0.673852 0.753725 -0.933588 2.795161 1.281997 -0.027587
O -1.784895 0.551430 -0.540689 0.137828 -0.376248 -0.184779
O 0.891401 -0.354360 1.661430 0.123900 -1.320197 -3.143128
H 0.855333 -1.953479 0.404329 0.051064 -1.506654 0.029607
H 1.484577 0.682245 -0.870679 0.366013 0.336389 0.336738
H 0.856124 -0.726790 -1.776202 -0.304314 0.822221 2.038772
H -0.266287 1.768309 -1.404544 -1.312141 -1.194320 0.266183
9
Properties=species:S:1:pos:R:3:forces:R:3 energy=-7263.532985236215
C 1.186563 -0.484735 -0.238368 -0.127293 1.632527 -0.220591
C -0.009521 0.033886 0.752131 1.625616 -1.546031 -0.685176
C -1.213405 0.539153 0.030545 -1.796551 0.086086 -0.476201
O -2.314528 -0.036429 -0.133281 2.533536 1.050684 0.363734
O 2.336440 -0.066321 -0.365669 -1.745122 -0.511554 1.046366
H 0.737267 -1.103673 -0.989785 -0.117353 -1.326017 -0.858411
H -0.163668 -0.704605 1.538394 -0.469751 -0.681852 -0.208557
H 0.524189 0.783238 1.241896 0.587028 2.123045 0.989789
H -1.013874 1.604537 -0.356527 -0.490110 -0.826887 0.049048
9
Properties=species:S:1:pos:R:3:forces:R:3 energy=-7263.445034541811
C -0.195279 -0.099573 1.308802 -0.154357 -3.047406 0.141049
C -0.169066 -0.637007 -0.175228 1.050251 0.310293 0.344658
C 0.751581 0.367338 -0.896165 -1.425681 -0.591845 -1.011237
O 0.882874 0.296529 -2.105221 0.603392 0.687793 0.310547
O -1.248926 0.069123 1.887799 0.086496 0.671759 -0.107546
H 0.776911 -0.121187 1.920231 -0.410393 0.528948 -0.783909
H 0.378503 -1.593926 -0.529678 -0.537138 0.771966 1.560387
H -1.208778 -0.801425 -0.552751 0.576139 0.698717 0.024703
H 1.247930 1.113096 -0.215587 0.211291 -0.030225 -0.478651
9
Properties=species:S:1:pos:R:3:forces:R:3 energy=-7263.701120075886
C -0.908237 -0.542438 0.970026 -1.255510 0.300749 1.265254
C -0.607442 -0.248401 -0.504758 0.864442 -0.615750 2.576710
C 0.814120 0.298634 -0.647782 0.180772 -0.162841 -0.621487
O 1.369892 0.209408 -1.738776 0.045361 0.418311 1.421549
O -0.703660 0.253123 1.880835 0.231157 -0.423991 -0.550533
H -1.493026 -1.522981 1.244264 0.904935 0.853123 -0.658528
H -0.666872 -1.250678 -0.901303 -0.433584 -0.006702 -1.525242
H -1.288326 0.557669 -0.762498 -0.524681 -0.129628 -0.687035
H 1.231160 0.739983 0.339397 -0.012892 -0.233271 -1.220688
9
Properties=species:S:1:pos:R:3:forces:R:3 energy=-7263.493258843142
C 0.614963 -0.468686 0.919652 -3.719149 0.551316 1.039917
C -0.729046 -0.231744 0.074377 0.102823 1.729801 0.974870
C -0.588745 0.768973 -1.042274 -1.518210 0.657174 -0.135623
O 0.060351 0.603447 -2.042609 1.151807 -0.238705 -0.864966
O 0.616186 -0.650727 2.120091 0.901168 0.172443 -0.927126
H 1.303553 -0.595682 0.120588 2.327498 -0.271386 -0.367159
H -0.692546 -1.229169 -0.305068 -0.655443 -1.059285 -0.888822
H -1.692990 0.049775 0.552860 0.651976 -0.649736 0.557702
H -1.283553 1.709559 -1.023420 0.757530 -0.891623 0.611206
9
Properties=species:S:1:pos:R:3:forces:R:3 energy=-7263.641198586899
C 0.680933 0.780350 0.945986 -1.246775 1.463084 -0.272667
C -0.602430 0.337050 0.283421 -0.435823 -0.389339 -0.715224
C -0.295426 -0.389258 -1.087566 0.277845 0.061949 0.640385
O -1.027486 -0.801463 -1.942405 -2.191794 0.273121 -0.470368
O 1.227675 0.139995 1.802747 0.883496 -0.720928 0.572944
H 0.981491 1.833249 0.701346 0.383724 -0.135378 -0.145792
H -0.925700 -0.513189 0.942046 -0.426774 0.590935 -0.420812
H -1.360788 1.199997 0.179539 0.874603 -1.332498 0.113819
H 0.710605 -0.696175 -1.296298 1.881497 0.189054 0.697715
9
Properties=species:S:1:pos:R:3:forces:R:3 energy=-7263.563955982846
C 1.020062 0.347185 0.463260 -1.439653 0.294011 -2.487865
C -0.174048 0.626729 -0.500505 -1.074593 0.585485 1.706897
C -1.196213 -0.519975 -0.362002 1.788397 0.137331 -1.274934
O -0.996787 -1.568271 -0.958622 -1.028604 -0.023887 0.637466
O 1.319165 1.121932 1.314471 0.808328 0.504454 1.566234
H 1.531741 -0.533911 0.097938 1.053500 -1.016164 0.458703
H -0.707039 1.408088 0.018361 -0.092421 1.130410 0.139249
H 0.222242 1.084235 -1.430510 -0.301358 -1.021294 -0.128831
H -1.992749 -0.281932 0.423134 0.286405 -0.590348 -0.616920
9
Properties=species:S:1:pos:R:3:forces:R:3 energy=-7263.613221055812
C 0.643107 -0.416099 0.905303 -0.521899 0.901958 -0.857772
C 0.192632 0.895394 -0.109498 0.401003 -1.838280 0.257677
C -0.805561 0.442358 -1.135228 -0.132249 -1.079653 1.313803
O -1.826771 -0.145596 -0.816820 -0.492364 0.153481 -0.347803
O 1.803866 -0.700772 1.138611 -1.800808 0.274707 -0.194962
H -0.341192 -0.957853 1.300407 1.678891 0.635495 -0.476280
H -0.195353 1.662460 0.544231 -0.258342 0.368084 0.436072
H 0.994734 1.256806 -0.726905 1.221968 0.376696 0.337457
H -0.455775 0.491565 -2.181076 -0.096200 0.207513 -0.468193
9
Properties=species:S:1:pos:R:3:forces:R:3 energy=-7263.574744924344
C 0.772938 0.107810 1.076277 1.554137 -1.694051 2.432578
C -0.260171 -0.445433 0.126895 -0.078023 -0.109501 0.449816
C -0.103617 -0.060751 -1.310174 -1.368985 1.299737 -1.948349
O -1.051121 -0.214479 -2.100806 1.859106 0.249315 0.970204
O 0.655012 0.628881 2.202515 -0.467163 -0.389100 -2.578182
H 1.795545 -0.405245 0.840305 -0.566436 1.205708 -0.087232
H 0.021653 -1.526616 -0.042299 -0.274884 0.345821 0.865799