12
Properties=species:S:1:pos:R:3:forces:R:3 energy=-6309.283248316829
C -36.695388 41.875099 -36.029494 0.375844 0.854664 0.901141
C -36.028588 41.969571 -34.775725 -0.372909 -0.424560 -0.332443
C -36.815880 41.732907 -33.636595 0.279505 -0.194321 0.422967
C -38.203910 41.514034 -33.707121 0.246854 -0.693245 1.452423
C -38.890354 41.561399 -34.917885 1.898030 0.582466 0.971345
C -38.100712 41.816633 -36.034028 -0.095701 -0.527159 -1.446201
H -36.133783 41.945947 -36.976679 -0.290763 0.115207 0.339524
H -34.939202 42.173596 -34.651233 -0.720164 -0.307512 -0.327484
H -36.314367 41.612083 -32.661101 -0.198347 0.297805 -0.259668
H -38.717776 41.199805 -32.752443 0.326961 0.481758 -0.939296
H -39.938014 41.448618 -34.848540 -1.285841 -0.094172 -0.653358
H -38.571789 41.887554 -37.013899 -0.163467 -0.090930 -0.128951
12
Properties=species:S:1:pos:R:3:forces:R:3 energy=-6308.780693978872
C -37.076206 41.971601 -36.150479 0.087993 -0.379541 -1.035567
C -36.156984 41.969204 -35.123291 0.370489 0.537827 -1.163626
C -36.546141 41.803765 -33.844233 0.786680 -0.352449 1.198296
C -37.842018 41.515907 -33.550971 0.274306 -0.786471 3.965585
C -38.711895 41.516712 -34.545132 -2.594354 -0.960658 -1.970269
C -38.391631 41.649214 -35.878795 0.853853 1.890704 -0.124172
H -36.841808 42.223241 -37.179535 0.478967 0.020140 -0.165108
H -35.133034 42.187755 -35.238285 1.373499 0.341919 -0.731806
H -35.777850 41.882894 -33.120383 0.669772 -0.051917 1.157743
H -38.211187 41.216566 -32.514377 0.647563 0.680443 -1.106040
H -39.701173 41.278359 -34.309759 -1.948967 -0.234513 0.387390
H -39.068546 41.994037 -36.636262 -0.999801 -0.705485 -0.412424
12
Properties=species:S:1:pos:R:3:forces:R:3 energy=-6308.978715024033
C -37.075598 41.969361 -36.151092 0.664696 0.503729 -1.794183
C -36.105864 42.031883 -35.157836 2.158527 -0.706653 1.442504
C -36.500849 41.793368 -33.856720 -0.159918 -0.809426 1.412257
C -37.876245 41.487803 -33.544050 3.744281 1.538940 1.765581
C -38.784264 41.473267 -34.523467 -1.929597 -0.179467 -1.879371
C -38.410544 41.700497 -35.874761 -0.121160 -0.281893 0.665050
H -36.711750 42.172263 -37.177766 -0.513568 -0.204289 0.236659
H -34.939057 42.066969 -35.187769 -2.076302 0.377586 -1.082298
H -35.689225 41.725092 -33.056637 -1.225262 0.259673 -0.788669
H -38.047792 41.571886 -32.474901 -0.736457 -0.703500 0.168031
H -39.826892 41.269290 -34.270044 -0.102777 0.063324 -0.164636
H -39.179416 41.622538 -36.652455 0.297538 0.141976 0.019076
12
Properties=species:S:1:pos:R:3:forces:R:3 energy=-6308.665062094469
C -36.728779 41.891466 -35.990621 2.671424 0.583720 -0.981818
C -36.023410 41.969463 -34.776216 -2.470997 0.006317 0.142230
C -36.806599 41.783762 -33.635651 -0.929981 -0.809701 -2.038445
C -38.206267 41.461317 -33.746103 2.547266 0.780100 1.547121
C -38.911510 41.646163 -34.877360 -0.185382 -0.604036 -2.749013
C -38.073265 41.791273 -36.027060 -2.877725 -0.686588 -2.216988
H -36.174851 41.900956 -36.967973 -0.379179 -0.011505 0.845492
H -34.980030 42.051371 -34.691174 1.500937 0.211545 -0.085916
H -36.271300 41.548044 -32.770471 0.521935 -0.122108 1.869134
H -38.537331 40.910667 -32.919504 -1.304415 -0.290782 1.567501
H -39.990319 41.406235 -35.034687 0.780864 0.181234 0.384097
H -38.482404 41.570897 -37.090106 0.125253 0.761803 1.716606
12
Properties=species:S:1:pos:R:3:forces:R:3 energy=-6308.932111708407
C -36.943832 41.989199 -36.066013 0.401061 -0.130143 0.451176
C -36.006907 41.963433 -34.966536 -0.829309 0.620731 -1.554091
C -36.602527 41.848438 -33.730109 -1.716977 -1.537248 1.294320
C -38.002871 41.504885 -33.574873 0.912724 0.768933 -2.752015
C -38.842071 41.437707 -34.747938 1.053049 -0.373102 2.020783
C -38.327618 41.735801 -35.991337 0.637767 0.845576 -0.980145
H -36.663934 42.137807 -37.075617 1.112495 0.364293 -1.042333
H -34.890936 42.121079 -35.065443 -1.305727 -0.202997 -0.150644
H -36.016690 41.711445 -32.826157 0.325039 0.445289 0.195819
H -38.405260 41.328519 -32.601129 -0.267984 -0.259907 0.658405
H -39.793450 40.965674 -34.669646 -1.177651 0.083463 0.270111
H -38.951993 41.886069 -36.952399 0.855512 -0.624890 1.588612
12
Properties=species:S:1:pos:R:3:forces:R:3 energy=-6309.095601449189
C -36.974233 42.006423 -36.168594 0.071472 0.365909 1.828844
C -36.091703 42.001252 -35.014167 1.183120 -0.234745 -2.377931
C -36.575182 41.728779 -33.768972 -1.126791 0.210823 1.648273
C -37.980040 41.595461 -33.537010 1.306607 -0.700744 0.745909
C -38.776139 41.435220 -34.638671 0.195456 0.961242 -1.209398
C -38.338106 41.692385 -35.971837 1.869557 -0.291584 1.352851
H -36.595962 42.407720 -37.104983 0.026636 -0.416386 -0.318874
H -34.948519 42.069503 -35.162863 -1.763879 0.168027 0.120584
H -35.905394 41.674930 -32.914560 0.197026 0.062434 0.098276
H -38.436338 41.446710 -32.513193 0.736047 0.207924 -1.001955
H -39.784406 41.278550 -34.397475 -1.771983 -0.465181 -0.230129
H -38.937505 41.510801 -36.829859 -0.923267 0.132283 -0.656452
12
Properties=species:S:1:pos:R:3:forces:R:3 energy=-6309.028780993223
C -36.732846 41.937499 -36.043235 1.194617 -0.057078 0.428558
C -36.090239 41.935500 -34.774811 -0.382898 0.216321 0.458986
C -36.787406 41.742298 -33.592735 -2.186523 -0.397947 -0.728597
C -38.205262 41.485625 -33.649984 1.750080 1.020035 0.028051
C -38.787883 41.509156 -34.900975 -1.730759 0.965640 -1.808893
C -38.119673 41.809452 -36.134486 -0.036169 -1.200870 0.560605
H -35.972521 41.983617 -36.829780 -0.732117 0.322253 -0.620613
H -35.047494 42.213088 -34.625667 0.259935 -0.210535 -0.616360
H -36.342285 41.829070 -32.627338 0.607168 0.047976 0.683332
H -38.753518 41.563367 -32.708387 -0.270573 -0.565731 -0.191978
H -39.886122 41.505967 -35.089694 0.439922 -0.360294 0.837145
H -38.750310 41.769643 -37.078109 1.087318 0.220230 0.969763
12
Properties=species:S:1:pos:R:3:forces:R:3 energy=-6309.136356470940
C -36.981788 41.953404 -36.089556 1.968425 -0.421636 -0.988158
C -36.059336 42.019600 -35.010509 -2.883872 -0.162976 0.309711
C -36.568678 41.746470 -33.720993 0.581923 -0.079267 0.007414
C -37.955960 41.522173 -33.564514 -0.147132 0.296801 -0.643468
C -38.827033 41.544952 -34.700858 -1.487995 -0.658162 1.531791
C -38.328908 41.665695 -35.993031 -0.662763 0.214373 -0.455582
H -36.532858 41.932372 -37.094057 -0.129627 0.550658 0.072902
H -35.113323 42.468703 -35.159087 1.343295 -0.108796 -0.207418
H -35.814017 41.659406 -32.890501 -1.010525 0.291808 -0.422757
H -38.395986 41.418965 -32.562473 0.167858 -0.164046 -0.263500
H -39.949184 41.373974 -34.515624 1.570648 0.282753 -0.270683
H -38.966034 41.620916 -36.937001 0.689764 -0.041509 1.329747
12
Properties=species:S:1:pos:R:3:forces:R:3 energy=-6308.884242975992
C -37.052426 41.986064 -36.170165 -0.325996 0.338595 0.723042
C -36.126698 41.964236 -35.098603 -2.112880 0.574543 -1.937591
C -36.508169 41.744943 -33.823007 -0.629105 -0.500804 2.193770
C -37.854573 41.539031 -33.558508 0.226192 -1.204241 1.055997
C -38.756635 41.493591 -34.571168 -3.035742 -0.374509 0.378231
C -38.407101 41.741669 -35.870463 1.337219 -0.569716 -1.186950
H -36.720671 42.331927 -37.163703 -0.147067 -0.444395 0.265221
H -35.252100 42.424516 -35.321954 3.402298 0.753346 -0.535655
H -35.849421 41.697479 -32.957029 0.473341 0.175781 -0.201869
H -38.237339 41.111903 -32.633789 0.368186 0.515978 0.602615
H -39.827132 41.226488 -34.274182 1.216286 0.317685 -0.674486
H -39.076581 41.476568 -36.659709 -0.772731 0.417736 -0.682326
12
Properties=species:S:1:pos:R:3:forces:R:3 energy=-6308.899298573020
C -36.920915 41.917379 -36.092320 1.263937 1.682497 -1.156539
C -36.121217 42.087377 -34.951253 1.716713 -0.239207 -1.271684
C -36.639094 41.695120 -33.736735 1.747627 0.745325 2.257986
C -37.973316 41.504728 -33.612293 -1.508300 -0.347242 -0.380093
C -38.790941 41.578782 -34.696791 -1.030949 -0.767852 -2.381206
C -38.265822 41.681140 -35.977824 -0.005710 -0.051412 0.536656
H -36.504899 42.242317 -37.071567 -0.077873 -0.563154 0.425010
H -35.046981 42.411296 -35.125042 -1.168629 -0.464172 0.512607
H -36.098653 41.657023 -32.753262 0.198773 0.101725 -1.104618
H -38.474770 41.177402 -32.759070 -0.313325 -0.307285 2.095070
H -39.836319 41.331307 -34.795740 -0.666148 0.015561 1.193318
H -38.933680 41.509226 -36.799980 -0.156115 0.195217 -0.726506
12
Properties=species:S:1:pos:R:3:forces:R:3 energy=-6308.436364609849
C -36.902985 42.079444 -36.071476 0.932816 0.591205 -1.039608
C -36.065646 42.138329 -34.924281 -1.507096 -1.551526 -0.067283
C -36.627635 41.587615 -33.710337 -0.956534 2.707449 -2.434319
C -38.051997 41.599440 -33.576655 -0.046095 -1.308150 -1.744948
C -38.849250 41.400356 -34.743741 3.518261 2.061070 -0.936111
C -38.231335 41.655808 -36.038610 -0.619652 -1.465088 2.535485
H -36.413892 42.354806 -37.042366 -0.564102 -0.220459 0.602566
H -35.006370 42.450028 -35.081217 -0.677811 -0.484088 0.481024
H -35.910575 41.429610 -32.980343 0.909058 -0.184963 2.242642
H -38.640760 41.655580 -32.681119 0.358959 -0.475793 1.071567
H -39.890631 41.270112 -34.720444 -1.490102 -0.321747 0.315904
H -38.824018 41.210550 -36.824383 0.142299 0.652092 -1.026918
12
Properties=species:S:1:pos:R:3:forces:R:3 energy=-6308.941132602551
C -36.964935 41.996700 -36.175175 -2.348225 -1.668233 -0.571787
C -36.110045 42.051101 -35.090217 0.976750 0.415197 0.513053
C -36.533209 41.717622 -33.755108 -1.082956 1.298676 -0.674579
C -37.908711 41.468715 -33.557623 0.225717 -0.039931 1.138141
C -38.819047 41.510992 -34.630597 0.433937 -0.334188 2.432839
C -38.373277 41.703855 -35.877731 2.079346 0.240121 -3.443263
H -36.641422 41.898589 -37.274518 -0.254379 0.751698 1.686150
H -35.110907 42.460601 -35.338025 -0.077934 -0.560501 0.623209
H -35.968954 41.970016 -32.844469 0.398405 -0.480341 -0.517317
H -38.316390 41.274211 -32.511081 0.615188 0.259398 -1.228244
H -39.843379 41.375582 -34.369291 -0.993859 -0.235902 -0.165001
H -39.039028 41.534778 -36.738081 0.028009 0.354007 0.206800
12
Properties=species:S:1:pos:R:3:forces:R:3 energy=-6308.914162738798
C -37.083107 41.980754 -36.212465 2.697296 0.682429 1.435262
C -36.112309 42.000282 -35.097275 -1.827673 -0.158960 -3.814691
C -36.529042 41.755005 -33.838179 3.055972 0.774759 2.712952
C -37.824821 41.529944 -33.539612 -2.252708 -0.100681 -0.253624
C -38.798419 41.461342 -34.559035 2.359493 0.449130 1.655345
C -38.391866 41.726681 -35.860106 -1.432740 -1.026023 -1.029108
H -36.670025 42.256666 -37.234880 -0.923312 -0.587842 1.069746
H -35.090601 42.103691 -35.354557 1.168340 0.378483 -0.109914
H -35.747202 41.881562 -32.998955 -1.133778 -0.445744 -1.068469
H -38.168782 41.464538 -32.523804 -0.019679 -0.251857 0.634433
H -39.734902 41.245820 -34.114054 -1.579101 -0.227607 -0.696030
H -39.147037 41.501620 -36.608249 -0.112110 0.513915 -0.535903
12
Properties=species:S:1:pos:R:3:forces:R:3 energy=-6308.996385237650
C -36.720023 41.945645 -36.046309 -0.151273 -0.199233 1.608898
C -36.089063 41.979113 -34.747207 0.707557 -1.380749 -1.548782
C -36.788875 41.701016 -33.587489 -0.371220 1.004950 0.703362
C -38.204512 41.531296 -33.699311 1.504261 -0.155649 3.011997
C -38.808097 41.505455 -34.910827 -0.966720 1.118798 -1.506349
C -38.131710 41.840196 -36.111829 1.972039 -1.109732 2.122855
H -36.022904 41.779940 -36.867045 -0.354919 0.617001 -0.484752
H -34.977792 41.867726 -34.721265 -0.664412 0.565153 -0.039018
H -36.208644 41.755354 -32.611401 -1.023923 -0.314142 -0.956082
H -38.769232 41.411404 -32.735149 0.267547 -0.140507 -0.967332
H -39.884399 41.348041 -34.946647 -0.159339 -0.057447 -0.097065
H -38.663225 41.710973 -36.997094 -0.759597 0.051555 -1.847732
12
Properties=species:S:1:pos:R:3:forces:R:3 energy=-6308.653871064313
C -37.014020 41.956320 -36.169276 1.618149 0.273771 2.924789
C -36.063889 42.045635 -35.082129 -0.165350 -1.514856 -2.030279
C -36.560680 41.732108 -33.844291 0.006661 0.761652 2.669078
C -37.915143 41.517381 -33.548853 -1.109172 0.138596 0.660224
C -38.818731 41.437568 -34.574412 -2.767119 0.643528 -1.614438
C -38.328763 41.760919 -35.863144 -0.488460 -0.694226 0.325478
H -36.799865 41.955663 -37.195695 0.914039 0.523927 -1.431833
H -34.974145 42.042553 -35.268823 -0.461512 0.412301 0.104001
H -35.981733 41.792225 -32.907629 0.521617 -0.002315 -0.576359
H -38.397489 41.579911 -32.543243 1.085863 -0.539984 -0.299008
H -39.998874 41.270416 -34.443867 2.657457 0.369224 -0.064033
H -38.863281 41.861701 -36.767993 -1.812173 -0.371618 -0.667620
12
Properties=species:S:1:pos:R:3:forces:R:3 energy=-6308.907621765496
C -36.776838 41.975701 -36.069005 0.756783 0.477861 0.401539
C -36.054821 42.005386 -34.851612 1.166578 0.204012 -1.568880
C -36.737006 41.751324 -33.692815 -1.139399 0.764079 2.745770
C -38.147865 41.516287 -33.583724 -0.113605 -0.430012 -2.030309
C -38.854238 41.392454 -34.874112 0.501511 1.689110 2.965001
C -38.153600 41.731100 -36.024615 0.701894 -0.524318 -0.086298
H -36.301656 42.309330 -37.014278 -0.245175 -0.377550 0.434077
H -34.940730 42.288074 -34.761064 -1.689665 -0.414769 -0.432987
H -36.165162 42.071391 -32.795152 -0.441741 -0.753252 -0.018394
H -38.728096 41.458269 -32.609265 0.935600 0.029622 -1.117295
H -39.954070 41.516275 -34.824510 0.406211 -0.728434 -0.310774
H -38.649911 41.784780 -36.958805 -0.838991 0.063652 -0.981450
12
Properties=species:S:1:pos:R:3:forces:R:3 energy=-6308.881228605652
C -37.065307 41.963435 -36.123443 -1.083081 -0.210396 -2.108244
C -36.131273 41.947560 -35.155164 0.202623 1.006050 1.427908
C -36.508328 41.797601 -33.833081 -1.132989 -0.214100 -1.786742
C -37.842029 41.535188 -33.546962 0.304306 -1.066717 3.759875
C -38.769630 41.457472 -34.535692 -1.979005 0.555087 -2.244929
C -38.408025 41.755569 -35.883346 -0.310212 -1.394802 1.471536
H -36.652171 42.108395 -37.097787 -0.217938 0.200431 -1.126019
H -35.200487 42.356783 -35.456452 1.456111 -0.151853 0.105890
H -35.764962 41.922238 -33.143218 1.709247 0.101657 2.366628
H -38.092532 41.251657 -32.436342 0.171314 0.711869 -1.966364
H -39.863660 41.267726 -34.421594 0.841462 -0.086905 0.566057
H -39.163152 41.513529 -36.624486 0.038162 0.549680 -0.465596
12
Properties=species:S:1:pos:R:3:forces:R:3 energy=-6308.431092318861
C -37.039070 42.045668 -36.149863 -0.099015 -2.048013 2.255971
C -36.110066 41.971413 -35.040231 -1.001780 1.030754 -2.585904
C -36.505295 41.743502 -33.747214 -2.724121 0.256812 0.417914
C -37.923494 41.508404 -33.533194 1.721418 -0.053610 0.698378
C -38.751196 41.512950 -34.658276 -1.877615 -0.821615 2.288053
C -38.384724 41.686555 -35.959394 1.303341 0.935271 -0.795652
H -36.459647 41.932993 -37.016605 -0.000446 0.525181 -2.086191
H -35.192303 42.226299 -35.563005 1.153265 -0.109089 1.492733
H -35.989782 41.938848 -32.837537 1.289041 -0.245765 0.504060
H -38.241802 41.286428 -32.435864 0.116835 0.475062 -2.064033
H -39.807631 41.307524 -34.494143 -0.246131 -0.087481 0.186790
H -39.173875 41.589230 -36.707804 0.365208 0.142495 -0.312121
12
Properties=species:S:1:pos:R:3:forces:R:3 energy=-6308.504677367300
C -36.982074 41.995552 -36.107477 -1.569948 -0.782713 -0.194997
C -36.069000 42.008355 -35.066578 -3.078048 -1.080677 -0.557999
C -36.547793 41.708800 -33.835598 -0.137851 1.382385 1.245496
C -37.907414 41.576518 -33.631085 0.850253 -1.434883 4.400625
C -38.842814 41.444481 -34.597418 -0.129546 0.425575 -0.834566
C -38.377044 41.693254 -35.888340 2.303552 0.482842 1.503910
H -36.569105 42.052626 -37.083215 -0.036070 0.531878 -1.267023
H -35.079525 42.167281 -35.128976 3.647577 0.721605 -0.968292
H -35.895946 41.917995 -32.991470 0.055872 -0.488834 0.369688
H -38.073759 41.433925 -32.525203 -0.761429 0.110180 -0.954857
H -39.904962 41.289965 -34.396926 0.084669 0.024248 0.027326
H -39.195229 41.914420 -36.472474 -1.229032 0.108392 -2.769313
12
Properties=species:S:1:pos:R:3:forces:R:3 energy=-6308.525633373685
C -36.747506 41.998730 -36.088209 -2.977890 -1.219926 3.391100
C -36.154745 41.934111 -34.830825 1.078367 0.200146 -0.307432
C -36.760554 41.738833 -33.617570 0.034401 0.795181 1.696891
C -38.121432 41.589484 -33.623471 -0.609673 -1.183103 -2.353808
C -38.805316 41.384833 -34.837709 -0.133421 1.877442 -2.428846
C -38.132536 41.735826 -36.102364 0.784449 -0.541673 2.294426
H -36.134897 42.378458 -36.807292 1.250926 0.805847 -2.695348
H -35.145631 42.196975 -34.862934 2.057835 0.309815 0.309516
H -36.365875 41.916284 -32.557014 0.375852 -0.321166 -1.766291
H -38.548947 41.594752 -32.686929 -1.715196 -0.264319 1.984431
H -39.915130 41.329125 -34.990630 0.834682 -0.231905 0.786963
H -38.656306 41.898547 -37.007442 -0.980333 -0.226339 -0.911603
12
Properties=species:S:1:pos:R:3:forces:R:3 energy=-6308.990658729437
C -36.930827 41.906934 -36.165991 -1.380352 0.662114 1.513606
C -36.138314 41.982256 -35.044862 1.581751 0.340003 -0.076892
C -36.628264 41.845285 -33.785798 0.028966 -1.276172 2.200258
C -37.967773 41.504539 -33.523410 0.891075 0.119602 1.213239
C -38.777753 41.472016 -34.610645 -2.910996 -0.280118 -2.965138
C -38.294767 41.772920 -35.950191 -0.901815 -1.202149 -0.656938
H -36.533898 42.136236 -37.098524 0.679578 0.132836 -1.926093
H -35.070889 42.157222 -35.106835 0.348742 0.010627 -0.338564
H -35.912724 41.706897 -32.961577 -0.101219 0.539723 -0.079838
H -38.282706 41.247368 -32.473802 0.096786 0.260977 -1.094489
H -39.872396 41.142211 -34.569587 1.334665 0.578701 0.240845
H -38.908165 41.707182 -36.931320 0.332820 0.113857 1.970003
12
Properties=species:S:1:pos:R:3:forces:R:3 energy=-6308.477571456115
C -36.860747 41.905426 -36.081749 -0.223300 0.567156 -0.394563
C -36.006594 42.076486 -34.952212 -3.006559 -0.830076 0.503843
C -36.675701 41.790630 -33.651372 0.263006 -0.602563 -1.933194
C -38.031941 41.379775 -33.621551 0.514728 0.864044 -1.393848
C -38.833221 41.425105 -34.793856 0.056272 1.310654 1.410118
C -38.291120 41.842623 -35.968877 2.859968 -1.134938 0.264746
H -36.531897 41.823644 -37.154855 0.368060 0.793612 1.029409
H -35.057399 42.578305 -35.144504 0.392929 -0.663942 0.573596
H -36.114046 41.622409 -32.741887 0.384401 0.678724 0.299742
H -38.626015 41.301304 -32.731690 0.305991 -0.513510 0.956299
H -39.896277 41.471942 -34.652954 -0.747577 -0.427194 0.005479
H -38.812424 42.061015 -36.850171 -1.167918 -0.041968 -1.321627
12
Properties=species:S:1:pos:R:3:forces:R:3 energy=-6308.406865632019
C -36.899941 42.033749 -36.117316 1.803907 1.826727 -0.176178
C -36.148415 42.044503 -34.939765 1.019422 0.207196 0.574224
C -36.667813 41.684645 -33.654319 2.959796 0.690385 -0.634721
C -38.024345 41.588244 -33.514102 -0.801334 -1.078192 -1.799607
C -38.790505 41.401266 -34.776777 -0.063764 0.273216 1.189573
C -38.237280 41.726437 -36.100985 -1.766911 -2.446192 2.598204
H -36.375272 42.471270 -37.006182 -0.593678 -0.692426 0.367107
H -35.092518 42.439931 -34.984308 -0.871837 -0.747068 -0.028067
H -35.841720 41.492620 -32.861465 -1.757861 0.672540 -0.758396
H -38.375182 41.495200 -32.475754 -0.707047 -0.345258 -0.564346
H -39.789076 40.891340 -34.536759 0.985644 1.073040 -1.054253
H -38.742380 41.367600 -37.010644 -0.206337 0.566032 0.286460
12
Properties=species:S:1:pos:R:3:forces:R:3 energy=-6308.605747027010
C -36.975284 41.966458 -36.208338 -2.561997 -0.175216 0.404678
C -36.066399 42.029330 -35.122166 -2.922144 -1.016447 -0.371513
C -36.536365 41.772647 -33.836734 -0.111151 0.522678 1.824033
C -37.916583 41.523786 -33.492568 3.712822 -0.133792 -0.574670
C -38.798516 41.483770 -34.508991 -3.039039 -0.569102 -2.738366
C -38.440749 41.665758 -35.931752 3.479154 1.487342 2.128560
H -36.561019 42.235720 -37.227807 -0.864295 -0.488477 0.916667
H -35.060608 42.134386 -35.368356 1.944347 0.486185 -0.032047
H -35.849387 41.897880 -32.964249 -0.196583 -0.346075 -0.677880
H -38.118535 41.167952 -32.495967 -0.391970 0.297314 0.472055
H -39.871543 41.230120 -34.162765 1.283327 0.464791 -1.128825
H -39.165010 41.933928 -36.688327 -0.332472 -0.529200 -0.222691
12
Properties=species:S:1:pos:R:3:forces:R:3 energy=-6308.967626981884
C -36.738474 41.900858 -36.088631 2.866247 1.509263 2.100020
C -36.148872 41.979777 -34.748483 1.473097 -0.971893 -2.150089
C -36.768596 41.673289 -33.569966 -2.804544 0.914793 -0.854614
C -38.192894 41.541666 -33.664063 0.818981 -0.350629 -0.342232
C -38.782295 41.524673 -34.911490 -0.002647 0.367935 -0.285342
C -38.086888 41.770049 -36.101152 -1.412011 -0.101284 -1.250620
H -36.016842 42.228204 -36.894559 -1.234179 -0.551808 0.405984
H -35.073878 42.174854 -34.689755 0.040164 0.106625 -0.164036
H -36.295522 41.890974 -32.651703 0.635537 -0.160158 1.199206
H -38.893907 41.520969 -32.852263 0.047601 -0.272110 0.929188
H -39.845392 41.443635 -35.005216 -0.802634 -0.059937 0.159836
H -38.689753 41.954303 -37.013735 0.374389 -0.430796 0.252699
12
Properties=species:S:1:pos:R:3:forces:R:3 energy=-6308.895446564277
C -37.053643 41.944249 -36.159963 -0.075851 0.872152 -0.387611
C -36.075757 42.013120 -35.135188 -1.106875 0.180917 -1.219592
C -36.555653 41.767176 -33.859023 4.872036 0.182475 1.876157
C -37.828027 41.528866 -33.553724 -1.313948 -0.190157 1.433825
C -38.785885 41.525674 -34.500542 -0.010386 -0.412851 -3.639846
C -38.443326 41.670114 -35.874579 1.770711 0.772725 -0.134216
H -36.649918 42.295368 -37.150479 -0.901733 -0.694017 0.484930
H -35.061129 42.350048 -35.428603 -0.404309 -0.457090 0.560317
H -35.846878 41.677110 -32.963163 -0.526767 0.419903 -1.273656
H -38.069420 41.362733 -32.524265 -0.345837 -0.228029 0.690744
H -39.734080 41.153690 -34.322899 -2.304120 -0.296347 0.761976
H -39.164638 41.672259 -36.726940 0.347079 -0.149682 0.846971
12
Properties=species:S:1:pos:R:3:forces:R:3 energy=-6308.972831915384
C -36.975000 41.989812 -36.153199 -1.283249 0.208438 -2.166091
C -36.067088 41.933182 -35.117334 -3.073685 0.204148 2.103989
C -36.567284 41.778338 -33.753135 1.745470 0.583039 -1.692114
C -37.923728 41.536787 -33.524274 1.046206 -0.729728 -0.024996
C -38.816483 41.478423 -34.616725 1.742200 0.186183 0.211803
C -38.384650 41.726529 -35.915378 0.757542 0.273967 -0.099560
H -36.590281 42.318422 -37.206197 -0.821294 -0.818386 1.699063
H -35.090779 42.220312 -35.309848 2.161121 0.337048 -0.164797
H -35.761714 41.969983 -32.994126 -1.084470 -0.605176 -0.123806
H -38.147309 41.154809 -32.525848 -0.637061 0.500487 0.068932
H -39.822258 41.224186 -34.457282 -1.520882 -0.333572 0.314115
H -39.209746 41.696531 -36.658491 0.968102 0.193551 -0.126538
12
Properties=species:S:1:pos:R:3:forces:R:3 energy=-6308.984717275693
C -37.064334 41.979497 -36.168296 1.180783 0.142176 2.624946
C -36.098837 42.041560 -35.106145 -0.439054 -0.645879 -0.094204
C -36.505627 41.696580 -33.810369 0.657242 1.515234 -1.276820
C -37.807475 41.511365 -33.546949 -3.854735 -0.667554 -1.264139
C -38.828527 41.478157 -34.564335 0.763925 0.137880 -0.044730
C -38.428340 41.755660 -35.908868 0.356250 -1.108900 0.703613
H -36.595997 42.058271 -37.102569 -0.061660 0.330447 -1.873295
H -35.018574 42.268606 -35.205739 -0.605297 -0.070886 -0.622870
H -35.920332 41.870369 -32.957031 1.529277 -0.123695 1.038374
H -38.161817 41.382362 -32.552773 -0.152949 -0.260965 1.072144
H -39.873798 41.195642 -34.256045 0.922258 0.454906 -0.536620
H -39.064588 41.573673 -36.780726 -0.296039 0.297236 0.273600
12
Properties=species:S:1:pos:R:3:forces:R:3 energy=-6309.003737264355
C -36.961851 41.945703 -36.100743 1.053802 -0.250150 0.028417
C -36.050785 42.060935 -35.019118 -0.627139 -0.056260 -0.054078
C -36.599833 41.714014 -33.789091 0.726314 0.558983 2.618921
C -37.973586 41.531855 -33.549572 -0.281040 -0.488089 -0.912141
C -38.828713 41.542765 -34.670251 2.345134 0.250968 -0.070816
C -38.323736 41.659331 -35.967786 2.510965 0.492649 2.572446
H -36.544733 41.936964 -37.085623 0.240833 0.418533 -0.886863
H -34.983401 42.427952 -35.066709 -1.131029 -0.666967 -0.336666
H -35.956807 41.712821 -32.857393 -0.396060 -0.007768 -1.007914
H -38.390914 41.284328 -32.547708 0.437394 0.372088 -0.578544
H -39.839575 41.552793 -34.561511 -3.147113 -0.424459 0.572950
H -38.855759 41.531967 -36.836050 -1.732061 -0.199529 -1.945710
12
Properties=species:S:1:pos:R:3:forces:R:3 energy=-6308.760879933270
C -37.051587 41.994663 -36.126258 -0.338306 -0.379815 -1.490036
C -36.069952 41.981052 -35.129545 0.531317 2.534725 -1.098890
C -36.529588 41.768366 -33.854700 1.316702 -0.851560 2.362129
C -37.865191 41.433861 -33.511887 0.611452 1.347811 -0.323470
C -38.787075 41.522145 -34.535049 -3.032833 -0.913559 -1.518531
C -38.418063 41.728463 -35.927761 0.591646 -0.675767 2.261445
H -36.673008 42.164861 -37.129083 -0.194962 0.123075 -0.446536
H -35.067894 42.581874 -35.397463 -1.826719 -1.952124 0.844587
H -35.741009 41.769172 -33.068216 -0.646091 0.117457 -0.089824
H -38.208809 41.402329 -32.464614 0.340610 -0.338990 -0.362959
H -39.932231 41.315636 -34.302522 2.242129 0.445682 -0.423254
H -39.151378 41.523391 -36.728457 0.405054 0.543066 0.285339
12
Properties=species:S:1:pos:R:3:forces:R:3 energy=-6309.042638986335
C -36.825909 41.946468 -36.026910 0.802685 0.254587 -0.125715
C -36.026111 42.026835 -34.841997 -5.154402 -1.152723 0.568171
C -36.689847 41.784377 -33.601011 -2.133835 -0.274132 -2.655686
C -38.091689 41.454711 -33.676176 0.462112 0.609869 0.322157
C -38.848421 41.520777 -34.861872 -0.588224 -0.690271 0.593661
C -38.211929 41.699301 -36.073539 -0.015928 0.458367 -1.051251
H -36.332643 42.180078 -36.962896 0.246475 -0.093889 -0.329121
H -35.041594 42.253968 -34.841813 3.265330 0.857312 -0.340241
H -36.270931 41.978999 -32.652304 0.829345 -0.174124 1.107981
H -38.650742 41.203020 -32.773355 0.167447 0.198706 0.230549
H -39.958131 41.399336 -34.863660 0.772327 -0.108944 0.302304
H -38.848583 41.695151 -37.040359 1.346669 0.115241 1.377193
12
Properties=species:S:1:pos:R:3:forces:R:3 energy=-6309.050632022678
C -36.986176 42.034676 -36.176788 -0.362456 -1.184251 0.047945
C -36.084196 41.950978 -35.050351 -0.004115 0.128772 -1.788721
C -36.578484 41.824346 -33.748955 0.814712 -0.223573 0.606147
C -37.933243 41.528975 -33.522703 0.744608 -0.014925 -0.005670
C -38.776933 41.435183 -34.611792 -2.084151 -0.170668 -1.837740
C -38.365480 41.718828 -35.957119 0.098932 0.629704 -0.077531
H -36.607101 42.117496 -37.247465 -0.300358 0.071722 1.405854
H -34.997619 41.866463 -35.324309 -0.804574 0.568103 0.658090
H -35.893660 41.872002 -32.855880 -0.474546 -0.161294 -0.944625
H -38.207446 41.269899 -32.498955 -0.413503 0.157837 -0.093788
H -39.868831 41.129322 -34.558230 1.205874 0.316898 0.492591
H -39.163270 41.734243 -36.813964 1.579578 -0.118325 1.537448
12
Properties=species:S:1:pos:R:3:forces:R:3 energy=-6308.633618131323
C -37.081403 41.916200 -36.145090 1.679965 1.727733 -3.979055
C -36.100579 41.995355 -35.207984 0.629373 0.391360 2.973066
C -36.504829 41.792065 -33.804861 0.081600 0.447297 -2.134143
C -37.822780 41.517784 -33.447580 -1.180411 -0.461396 -2.213673
C -38.793871 41.505977 -34.571079 -2.011480 -1.890597 2.078736
C -38.426832 41.716667 -35.892131 0.301819 -0.147189 1.096010
H -36.673107 42.253367 -37.212459 -1.283893 -0.992484 1.761751
H -35.053756 42.364947 -35.487707 -1.383045 -0.779057 0.547428
H -35.772527 41.956846 -33.059676 0.915190 -0.103640 0.971879
H -38.097490 41.190931 -32.416957 0.034678 0.546898 -0.762482
H -39.932009 41.084156 -34.417230 2.695634 1.343032 0.033096
H -39.140131 41.722352 -36.692642 -0.479429 -0.081957 -0.372613
12
Properties=species:S:1:pos:R:3:forces:R:3 energy=-6308.947188094520
C -36.982137 41.994106 -36.172815 -1.048450 -0.714330 -0.281371
C -36.087558 42.008258 -35.061361 0.496890 1.393861 -2.018036
C -36.530666 41.803381 -33.778302 -1.640758 -1.599817 1.552902
C -37.912620 41.495768 -33.566360 0.170133 -0.592973 2.079341
C -38.825835 41.466234 -34.609673 0.703323 0.501710 -0.241291
C -38.362880 41.677291 -35.891242 0.034576 1.080162 -2.474789
H -36.650937 42.136233 -37.268681 -0.347475 -0.029652 1.830264
H -35.079211 42.427276 -35.250621 -0.188377 -0.663248 0.144089
H -35.888513 41.617438 -32.887602 -0.036515 0.675327 -0.742903
H -38.272805 41.202081 -32.509882 0.615302 0.640531 -1.463463
H -39.896097 41.424761 -34.565030 -0.613982 -0.447561 0.831698
H -39.222229 41.753013 -36.673472 1.855334 -0.244008 0.783558
12
Properties=species:S:1:pos:R:3:forces:R:3 energy=-6308.779525637304
C -36.997549 41.957544 -36.181548 -0.115319 -0.031005 3.546884
C -36.076700 41.993684 -35.111672 0.915928 0.427216 1.019731
C -36.585338 41.779941 -33.790552 1.099858 0.036926 -0.673768
C -37.889059 41.478205 -33.517501 -1.943143 0.564214 -1.248905
C -38.822148 41.544844 -34.605568 -0.645048 -2.554954 1.746459
C -38.357015 41.715350 -35.901145 0.461908 -0.041004 -0.321864
H -36.801584 42.305356 -37.122761 1.082109 0.422576 -2.677747
H -34.925138 42.227182 -35.130430 -2.230969 -0.368926 -0.575343
H -35.941163 41.855685 -32.941957 0.925940 -0.057934 0.479381
H -38.304191 41.237183 -32.524047 0.502217 0.203500 -0.238206
H -39.802910 41.033213 -34.282504 0.842653 1.301087 -1.168523
H -38.923659 41.609884 -36.817155 -0.896134 0.098303 0.111900
12
Properties=species:S:1:pos:R:3:forces:R:3 energy=-6308.624459717640
C -36.861070 41.950379 -36.106740 -1.265299 1.063821 -0.082539
C -36.026790 42.091285 -34.901695 -4.728885 -2.101651 -2.974937
C -36.678950 41.672220 -33.771450 1.326736 1.214106 3.351499
C -38.026553 41.490605 -33.586269 -0.216816 -0.309831 -0.727433
C -38.790081 41.504473 -34.721770 -1.858180 0.232165 -0.917308
C -38.305796 41.696397 -36.018946 2.884615 0.441968 1.372298
H -36.627143 42.295903 -37.134173 0.826156 -0.302521 0.579095
H -35.018717 42.220793 -34.810019 2.789390 0.760772 -0.509839
H -36.127245 41.811200 -32.820936 0.183647 -0.425274 -0.290459
H -38.522619 41.392173 -32.629186 0.236734 -0.107094 0.343964
H -39.861746 41.522460 -34.579724 -0.574206 -0.334076 -0.081325
H -39.000751 41.791082 -36.858121 0.396107 -0.132384 -0.063016
12
Properties=species:S:1:pos:R:3:forces:R:3 energy=-6308.589917678892
C -37.039560 41.998280 -36.169101 1.398073 -0.056031 1.053664
C -36.037937 41.963058 -35.126677 -1.117261 1.812572 1.678995
C -36.535506 41.806048 -33.749651 -1.265930 -1.237869 -2.908036
C -37.940105 41.500050 -33.536403 2.251607 0.429467 2.299467
C -38.802372 41.457582 -34.602959 -2.245782 0.403962 -0.242712