12
Properties=species:S:1:pos:R:3:forces:R:3 energy=-6308.741340493546
C -37.036784 41.917524 -36.149064 -2.131633 0.986358 -1.323934
C -36.156767 42.033070 -35.116848 2.091064 0.424747 0.257610
C -36.526123 41.750557 -33.789605 3.856983 -0.003569 0.168782
C -37.828694 41.559702 -33.496496 -0.775988 -0.530909 -2.696682
C -38.745558 41.481790 -34.576362 -2.799946 0.353872 0.229328
C -38.435487 41.711439 -35.960216 0.334114 -0.913012 2.618420
H -36.694588 42.241768 -37.111022 0.254454 -0.091886 -0.867258
H -35.117217 42.417251 -35.404184 -1.159510 -0.860395 0.670431
H -35.636992 41.557932 -33.070373 -1.669483 0.727564 -0.660256
H -38.097808 41.294632 -32.540787 -0.995517 -0.502127 2.318292
H -39.858467 41.305727 -34.230008 1.933788 0.255505 -0.946824
H -39.274448 41.635717 -36.693574 1.061675 0.153853 0.232091
12
Properties=species:S:1:pos:R:3:forces:R:3 energy=-6308.743555989508
C -36.961511 42.035760 -36.180388 -2.137348 -2.468470 0.490147
C -36.029297 42.041412 -35.114952 -2.530260 -0.034784 0.019519
C -36.555377 41.760550 -33.826811 -0.762537 0.045706 1.173403
C -37.933293 41.440061 -33.513162 1.870415 1.196790 -2.096980
C -38.838843 41.520596 -34.564601 1.495492 -0.232600 -0.941523
C -38.386337 41.637170 -35.881552 1.222994 1.624635 -1.746851
H -36.586721 41.972819 -37.221502 -0.392436 0.522789 0.400751
H -35.018298 42.328690 -35.353080 0.522947 0.018102 0.412425
H -35.978238 41.938994 -32.919858 0.634070 -0.316689 -0.125265
H -38.304284 41.275155 -32.528191 0.118035 -0.018178 0.976440
H -39.875181 41.550707 -34.416174 -1.690558 -0.476065 0.427648
H -39.211775 41.607496 -36.696043 1.649186 0.138765 1.010288
12
Properties=species:S:1:pos:R:3:forces:R:3 energy=-6309.019539929082
C -36.852983 41.933212 -36.134612 -0.769471 0.501904 -0.434126
C -36.133657 42.109189 -34.982586 -0.382358 -1.256263 1.258637
C -36.683187 41.670802 -33.703807 1.369143 1.077686 -0.540793
C -38.027750 41.402268 -33.553830 -0.009520 0.087713 -1.806078
C -38.788103 41.583241 -34.730731 -0.839807 -0.709644 1.137257
C -38.224933 41.738536 -35.957858 -0.476763 0.525848 -2.028593
H -36.418704 42.103884 -37.139439 -0.200180 -0.005802 0.542790
H -35.173620 42.519081 -35.193945 1.284526 0.037131 0.856977
H -36.051317 41.637760 -32.815969 0.267991 0.065027 -0.080542
H -38.496227 40.994944 -32.674474 0.002401 0.145516 0.599505
H -39.864200 41.529981 -34.698590 -0.534193 -0.142836 0.196736
H -38.899474 41.867960 -36.827444 0.288231 -0.326280 0.298230
12
Properties=species:S:1:pos:R:3:forces:R:3 energy=-6308.285498419054
C -36.882234 41.846894 -36.076126 1.781947 2.592005 -1.566030
C -36.178999 42.103445 -34.919255 2.667969 -1.284601 -0.108740
C -36.674334 41.828755 -33.658472 0.347888 -0.441994 -1.383250
C -37.982452 41.388216 -33.640530 -0.427544 -0.954279 1.364426
C -38.814301 41.543474 -34.709914 -1.541158 -0.234529 -3.586291
C -38.227103 41.800326 -36.045036 -2.356119 -0.326747 2.673794
H -36.296066 42.158373 -36.976025 -0.718284 -0.808684 0.108657
H -35.077553 42.078867 -35.118466 -0.557799 0.712206 0.722006
H -35.933210 41.635076 -32.924367 0.295353 0.057982 1.283247
H -38.299411 40.649374 -32.906314 -0.297858 0.640241 0.883305
H -39.924052 41.267889 -34.654714 1.502511 0.341379 0.004182
H -38.791608 41.983891 -36.937871 -0.696907 -0.292978 -0.395308
12
Properties=species:S:1:pos:R:3:forces:R:3 energy=-6308.987082500607
C -36.783017 41.953932 -36.058598 -0.400043 0.148263 -2.520680
C -36.117755 42.012391 -34.865897 2.791040 -0.023930 1.974262
C -36.755875 41.795699 -33.586774 1.750702 0.153657 -1.409924
C -38.116214 41.489391 -33.652406 0.835581 0.467571 2.495087
C -38.802309 41.440740 -34.823105 -1.318437 0.286771 -2.989784
C -38.165349 41.755378 -36.097365 0.284573 -0.772344 3.603074
H -36.238322 42.032426 -37.070523 -0.595343 0.197206 1.582140
H -34.973846 42.215825 -34.960757 -1.843370 -0.383951 0.567500
H -36.126806 41.783670 -32.633350 -1.045032 0.191787 -1.219043
H -38.620094 41.450127 -32.671994 -0.186764 -0.510307 -0.424271
H -39.884524 41.154953 -34.784955 0.749561 0.453495 -0.197782
H -38.703589 41.894072 -36.981365 -1.022468 -0.208217 -1.460579
12
Properties=species:S:1:pos:R:3:forces:R:3 energy=-6308.886964039443
C -37.038300 41.978933 -36.171588 -2.525696 -0.922919 -0.593807
C -36.084507 42.018683 -35.163530 -2.451107 -0.385428 0.815259
C -36.517096 41.780582 -33.790062 0.305761 0.109828 -2.950289
C -37.881828 41.502276 -33.493072 2.742433 0.460784 -0.433100
C -38.781637 41.474650 -34.535690 1.261045 0.659037 -2.110182
C -38.425118 41.694630 -35.897544 2.142362 0.546472 1.972351
H -36.816837 42.010515 -37.244183 0.503847 0.447352 0.174125
H -35.145993 42.273050 -35.594042 1.494626 0.040069 0.746123
H -35.668712 41.718077 -33.148950 0.183899 0.066492 1.365324
H -38.071956 41.353209 -32.448966 -0.737932 -0.249176 0.514300
H -39.790994 41.355606 -34.412917 -2.711639 -0.509330 0.916406
H -39.196084 41.794125 -36.643055 -0.207598 -0.263181 -0.416510
12
Properties=species:S:1:pos:R:3:forces:R:3 energy=-6309.226251173944
C -36.968881 41.987704 -36.140088 0.098160 0.033713 -1.021132
C -36.134863 41.982810 -35.020775 2.681792 0.456915 -0.462567
C -36.575871 41.760813 -33.717316 -0.918136 0.028043 -1.325743
C -37.950688 41.580461 -33.590931 0.013360 -0.667471 2.876055
C -38.791332 41.459847 -34.664974 0.747567 0.433703 -0.828597
C -38.295807 41.674935 -35.952859 -0.810205 0.301341 0.595246
H -36.662809 42.196688 -37.201558 0.283891 -0.072654 1.152546
H -35.043286 42.196911 -35.199123 -0.867913 -0.251034 0.204627
H -35.964609 41.661392 -32.835975 0.544836 0.311083 0.118773
H -38.284345 41.477097 -32.518798 -0.221238 -0.074731 -1.077028
H -39.817993 41.251004 -34.596777 -1.507854 -0.237127 0.537937
H -39.049113 41.759441 -36.717370 -0.044259 -0.261780 -0.770115
12
Properties=species:S:1:pos:R:3:forces:R:3 energy=-6308.994087151428
C -36.887574 41.986653 -36.141140 -0.277456 0.587154 0.782919
C -36.113285 41.960959 -34.939181 -0.847129 -0.137262 -0.119053
C -36.657418 41.810726 -33.641523 1.562783 0.035889 -2.152354
C -37.980917 41.540224 -33.603532 -2.853656 -1.520823 0.884494
C -38.816889 41.426230 -34.737999 2.270241 0.854424 -1.064524
C -38.273632 41.764408 -36.027524 -0.193379 0.023478 1.674844
H -36.505278 42.301679 -37.134243 0.231285 -0.421809 0.650170
H -35.061751 41.909421 -34.895866 1.566405 0.449899 -0.791532
H -35.948477 41.716543 -32.814404 -0.400796 0.190227 0.144741
H -38.399372 41.179746 -32.656244 -0.169198 0.293759 0.059686
H -39.786508 40.995094 -34.678356 -1.051503 -0.003303 0.265618
H -38.974535 41.932083 -36.843356 0.162402 -0.351633 -0.335010
12
Properties=species:S:1:pos:R:3:forces:R:3 energy=-6308.725346977550
C -36.817776 42.015820 -36.137579 -2.169593 0.535623 1.391936
C -36.056994 42.028662 -34.935344 -2.120989 -0.479641 0.276783
C -36.681654 41.778057 -33.683225 0.189581 0.003773 -0.233140
C -38.040180 41.463471 -33.636277 1.108556 0.301613 1.378514
C -38.842186 41.428371 -34.726549 1.795052 0.987976 -2.341107
C -38.296304 41.810391 -35.984735 1.572478 -2.174773 -0.762961
H -36.356506 42.310072 -37.104789 -0.382897 -0.516614 0.479928
H -35.007711 42.067336 -34.876768 1.539026 0.465465 -0.514663
H -36.103315 41.763040 -32.731858 -0.176967 0.007106 -0.732146
H -38.495459 41.151232 -32.723698 -0.119451 -0.157002 1.067976
H -39.773078 40.969386 -34.592773 -1.776081 -0.343087 -0.310693
H -38.875758 41.349605 -36.839933 0.541285 1.369561 0.299572
12
Properties=species:S:1:pos:R:3:forces:R:3 energy=-6308.693372007572
C -37.079008 41.958230 -36.163309 2.534942 0.194900 -0.591530
C -36.128394 42.030326 -35.098864 -0.244333 -0.006191 -1.778266
C -36.482332 41.780706 -33.791125 0.392330 -0.294607 -1.475060
C -37.817497 41.510936 -33.611335 -3.353801 -0.713248 4.090310
C -38.838689 41.468979 -34.543917 1.580521 0.801466 -2.105718
C -38.366431 41.704735 -35.858129 -1.874878 -0.253547 1.455386
H -36.792579 41.993682 -37.257016 -0.034199 0.397524 1.234526
H -35.102358 42.280683 -35.296189 0.624672 -0.026377 -0.380118
H -35.610617 41.613647 -33.173022 -0.420724 0.284671 1.146341
H -38.334209 41.398918 -32.609057 1.438334 -0.147166 -0.245984
H -39.926364 41.347665 -34.407584 0.630955 -0.045018 0.530612
H -39.116712 41.820448 -36.568194 -1.273818 -0.192406 -1.880500
12
Properties=species:S:1:pos:R:3:forces:R:3 energy=-6308.838063142649
C -36.958253 42.032329 -36.038987 0.685999 0.161584 -2.204517
C -36.145262 41.980710 -34.965781 3.419614 0.029671 0.420282
C -36.616335 41.771627 -33.710481 1.400465 -0.686169 1.440318
C -37.955926 41.512249 -33.606575 -2.771806 0.163431 1.943711
C -38.805647 41.509127 -34.722098 0.169578 -1.030429 -1.125624
C -38.252738 41.648389 -36.034049 -3.218398 0.926098 0.046457
H -36.525081 42.392137 -36.935675 0.555235 0.022335 -1.323381
H -35.027562 41.978688 -35.109887 -0.978734 0.584007 0.011775
H -35.841831 41.710088 -32.900439 -1.106872 0.048994 -0.275821
H -38.483793 41.398176 -32.601188 0.857834 0.013168 -1.082532
H -39.857206 41.241016 -34.609568 -0.028977 0.129576 0.138868
H -38.887465 41.728750 -37.019763 1.016063 -0.362267 2.010464
12
Properties=species:S:1:pos:R:3:forces:R:3 energy=-6308.862546450608
C -36.994660 41.981891 -36.114188 -1.766162 0.065762 -1.878033
C -36.095316 41.956420 -35.077960 0.230540 -0.060383 0.238053
C -36.498748 41.746610 -33.798767 -3.421234 0.438917 1.464501
C -37.942443 41.545577 -33.526532 3.774735 0.540600 -2.893459
C -38.813927 41.490827 -34.605164 -0.311483 -0.881656 -0.908494
C -38.391495 41.717037 -35.959066 0.663108 0.447754 0.064437
H -36.646012 42.274384 -37.110277 0.038021 -0.201592 -0.009100
H -35.048109 42.141934 -35.148687 0.880440 0.297069 -0.851819
H -35.794160 42.033297 -33.035110 0.165969 -0.539562 0.748655
H -38.240314 41.376407 -32.558051 -0.933944 -0.401136 2.328708
H -39.785737 41.045442 -34.378828 -0.383519 0.549308 -0.243833
H -39.079664 41.768896 -36.901388 1.063531 -0.255081 1.940384
12
Properties=species:S:1:pos:R:3:forces:R:3 energy=-6309.286638009933
C -36.865319 41.938449 -36.097674 -0.549901 1.332137 0.581712
C -36.091334 42.050964 -34.923259 0.357730 -0.661356 -1.679247
C -36.671214 41.727427 -33.728140 0.806175 0.590398 1.451225
C -38.002043 41.442645 -33.601267 -1.286083 0.137475 -0.389167
C -38.827302 41.504841 -34.750241 -0.411572 -0.619474 0.601462
C -38.271307 41.786395 -35.994720 0.972448 -0.866238 0.332279
H -36.410284 42.258066 -37.021086 0.139000 -0.239132 -0.611026
H -35.013619 42.242690 -34.984176 -0.198451 0.120319 -0.052625
H -36.109278 41.824834 -32.797585 0.282169 -0.195613 -0.037618
H -38.314981 41.269224 -32.573311 -0.690841 -0.218311 -0.146959
H -39.900053 41.230564 -34.756038 0.426122 0.277295 0.437749
H -38.941961 41.667707 -36.837801 0.153205 0.342500 -0.487785
12
Properties=species:S:1:pos:R:3:forces:R:3 energy=-6308.887265845749
C -36.918290 41.976129 -36.119024 -0.731174 -0.584240 2.139316
C -36.020479 42.017365 -35.002005 -3.485837 -0.255935 -0.054956
C -36.591369 41.781398 -33.734131 -1.142573 -0.948677 0.453575
C -38.014132 41.545431 -33.601588 0.956794 -0.128278 2.377272
C -38.860991 41.447830 -34.701686 1.667400 0.798356 0.444351
C -38.318081 41.692655 -35.929031 2.752488 0.407070 -1.856251
H -36.540114 41.988721 -37.110376 0.384780 0.514978 -1.027637
H -35.070767 42.439380 -35.065019 2.052113 0.108559 -0.384551
H -35.970575 41.540899 -32.827380 -0.407800 0.892065 -0.742048
H -38.409616 41.478128 -32.506618 0.536820 -0.207913 -1.930096
H -39.875548 41.232249 -34.703595 -2.087228 -0.364512 0.706139
H -38.885247 41.693490 -36.850393 -0.495783 -0.231474 -0.125115
12
Properties=species:S:1:pos:R:3:forces:R:3 energy=-6308.986932264095
C -36.909126 41.962212 -36.223525 -0.565018 -0.922793 1.664335
C -36.119445 41.965679 -35.050738 -0.721837 0.826092 -0.056627
C -36.663647 41.801890 -33.753195 1.750301 0.144145 -1.356361
C -37.956954 41.522442 -33.495055 -1.530635 -0.757332 -2.331477
C -38.795003 41.458191 -34.641110 0.991115 0.897579 0.170074
C -38.273695 41.743088 -35.927277 -1.617833 -0.034187 -0.616867
H -36.535249 41.910894 -37.256795 -0.008665 0.566015 0.388659
H -35.121967 42.352753 -35.005386 0.996670 -0.271409 -0.584246
H -35.921612 41.820165 -33.004342 0.747015 0.161772 1.319988
H -38.316949 41.211330 -32.555830 -0.464232 -0.085043 1.371238
H -39.852684 41.304126 -34.489432 -0.422360 -0.120638 -0.226921
H -39.068598 41.860666 -36.710662 0.845480 -0.404202 0.258204
12
Properties=species:S:1:pos:R:3:forces:R:3 energy=-6308.823645201322
C -36.908653 41.936847 -36.117554 0.073843 0.232168 -0.876288
C -36.057214 42.031324 -34.975928 -1.806611 0.129344 0.836755
C -36.600373 41.797421 -33.642053 -0.899778 -0.652545 -2.738264
C -37.988309 41.496387 -33.586622 -0.096403 -1.006865 -0.179455
C -38.850960 41.488456 -34.701745 0.782109 0.898720 -1.992240
C -38.315138 41.722355 -36.047459 2.505706 -0.229106 5.250058
H -36.479076 42.048747 -37.180353 -0.364515 0.048092 1.633528
H -35.071088 42.449091 -35.128799 0.522047 -0.373263 0.100554
H -35.981726 41.583719 -32.785212 0.360463 0.437074 0.335746
H -38.466391 40.988078 -32.730842 0.491557 0.753078 0.326491
H -39.933366 41.365754 -34.524865 0.404989 -0.177333 -0.221583
H -38.852333 41.794719 -36.905209 -1.973406 -0.059363 -2.475303
12
Properties=species:S:1:pos:R:3:forces:R:3 energy=-6308.504444036275
C -36.739345 41.943616 -36.091422 -1.282785 0.042391 3.315198
C -36.108768 41.979405 -34.818103 0.356478 -0.162310 -0.815538
C -36.771230 41.725357 -33.618828 -2.542639 -0.081980 -2.195438
C -38.150119 41.535921 -33.605628 0.047632 -0.352543 -3.399321
C -38.781745 41.456614 -34.903966 -1.966314 0.456263 3.439497
C -38.141615 41.729303 -36.054471 2.146983 -0.071546 -1.173280
H -36.373077 42.364999 -36.969948 1.278514 0.390393 -1.528880
H -35.090912 42.287701 -34.569209 0.324164 -0.032391 -1.042753
H -36.193671 41.915691 -32.818300 1.702091 0.350235 3.380174
H -38.930852 41.564577 -32.897558 -0.000075 -0.182208 1.955917
H -39.901783 41.460154 -34.764302 0.915371 -0.290282 -0.908469
H -38.625251 41.859272 -36.985059 -0.979420 -0.066022 -1.027107
12
Properties=species:S:1:pos:R:3:forces:R:3 energy=-6309.007104290730
C -37.017608 41.961977 -36.163282 1.327780 0.562523 0.438984
C -36.091158 41.972282 -35.040775 -0.022142 1.013422 -3.449114
C -36.538684 41.823906 -33.804400 -3.040120 -1.762109 2.575666
C -37.918642 41.493442 -33.540241 2.404692 1.222957 -3.094327
C -38.779899 41.482581 -34.612614 -1.817495 -0.259133 0.211525
C -38.387893 41.719205 -35.922793 1.807947 0.115081 -1.270624
H -36.574337 42.254452 -37.157447 -0.763463 -0.554458 0.733195
H -35.022974 42.218445 -35.076574 -0.134127 -0.117886 -0.877934
H -35.829874 41.733589 -33.031155 0.835531 0.215468 1.329422
H -38.309118 41.300710 -32.623147 -0.819060 -0.513447 3.001840
H -39.851901 41.303478 -34.405830 0.357997 -0.063915 -0.143796
H -39.038039 41.650570 -36.809255 -0.137540 0.141498 0.545162
12
Properties=species:S:1:pos:R:3:forces:R:3 energy=-6308.775016243298
C -36.901605 42.043440 -36.013347 -0.659137 -0.570741 -2.183302
C -36.067230 42.007474 -34.945757 0.429419 -0.248253 0.837596
C -36.640747 41.677310 -33.699974 1.701613 0.808857 1.161338
C -37.984359 41.578443 -33.569643 -2.229868 -1.262851 -2.673704
C -38.836334 41.419415 -34.824740 0.061097 1.167377 3.775584
C -38.319400 41.716902 -36.026066 3.308535 0.704854 -1.471927
H -36.359881 42.145390 -36.956749 -0.442226 0.409757 -0.349727
H -35.000169 42.244392 -35.115293 -0.418726 -0.300256 0.387311
H -36.045452 41.606863 -32.754274 -0.168151 0.241236 -0.801948
H -38.359613 41.504107 -32.560992 -0.706895 -0.298983 0.129471
H -39.906149 41.334904 -34.730690 -0.511667 -0.398286 0.338678
H -38.766820 41.749617 -37.039966 -0.363993 -0.252709 0.850630
12
Properties=species:S:1:pos:R:3:forces:R:3 energy=-6309.103988432637
C -36.975733 41.912590 -36.149853 -0.720654 0.570094 1.115604
C -36.074868 42.044649 -35.073911 -1.205628 -1.145208 -0.802262
C -36.573240 41.747956 -33.807973 1.784068 1.236908 1.335478
C -37.885913 41.483931 -33.523545 -2.231608 -0.527587 0.569458
C -38.851175 41.545204 -34.611660 2.378153 -0.753730 0.419638
C -38.379428 41.721210 -35.928195 1.233717 0.439001 0.771994
H -36.575092 42.100711 -37.114356 0.089164 0.035422 -1.219266
H -35.008306 42.178307 -35.243433 0.011101 0.238385 -0.008681
H -35.882703 41.935451 -32.956883 -0.262348 -0.563145 -0.307921
H -38.127850 41.205326 -32.406596 -0.014383 0.633591 -2.242492
H -39.857362 41.228874 -34.505556 -1.164614 0.036575 0.497214
H -39.097793 41.786985 -36.745123 0.103032 -0.200306 -0.128764
12
Properties=species:S:1:pos:R:3:forces:R:3 energy=-6308.617956434658
C -36.796021 42.050326 -36.114660 2.000939 -0.880480 1.103927
C -36.146726 41.906069 -34.851795 1.218742 1.740607 -2.975537
C -36.769448 41.800212 -33.670838 -0.978984 -0.594787 2.272816
C -38.119558 41.456996 -33.568286 -0.271993 1.215038 -1.752978
C -38.793001 41.524678 -34.824161 -0.659207 -1.552405 1.299425
C -38.097545 41.662510 -36.061332 -3.467529 1.023875 -2.048165
H -36.196545 42.412852 -37.004589 -0.910091 -0.767594 0.807027
H -35.107810 42.133619 -34.880268 1.118329 0.334943 0.312076
H -36.267820 42.129212 -32.777971 0.698763 -0.506590 0.607692
H -38.613265 41.355013 -32.586118 -0.006090 0.079916 -0.576585
H -39.890237 41.354330 -34.701050 0.636591 0.046305 -0.936645
H -38.688629 41.703027 -37.070401 0.620529 -0.138829 1.886946
12
Properties=species:S:1:pos:R:3:forces:R:3 energy=-6308.791746105383
C -37.072241 41.940918 -36.158215 1.239536 1.850467 -3.357488
C -36.079867 42.030927 -35.165549 -1.049425 -0.894486 2.158810
C -36.487035 41.800120 -33.790943 0.578128 -0.292231 -1.666061
C -37.838329 41.469690 -33.494981 0.388145 0.614800 -0.133995
C -38.837565 41.492129 -34.518185 1.790222 0.035339 -2.117121
C -38.430801 41.703552 -35.953763 -0.366467 -0.051991 3.542757
H -36.727210 42.339250 -37.260558 -0.808651 -1.346072 2.383422
H -35.002888 42.141683 -35.362501 -0.468334 0.270445 -0.248742
H -35.684167 41.801566 -33.006880 -0.868326 0.003405 -0.500355
H -37.975000 41.278238 -32.401636 -0.731544 0.062553 -0.917373
H -39.893621 41.330557 -34.352948 -0.234842 -0.149180 0.425667
H -39.200899 41.761282 -36.748302 0.531559 -0.103047 0.430480
12
Properties=species:S:1:pos:R:3:forces:R:3 energy=-6308.866541655962
C -37.020624 41.982969 -36.182295 1.165255 -0.259698 2.274864
C -36.127241 42.041345 -35.062020 1.212356 0.102012 0.399655
C -36.506442 41.732223 -33.749380 -1.772040 0.044797 -0.278557
C -37.911128 41.485854 -33.569057 0.373946 0.774610 2.589190
C -38.833964 41.552184 -34.581096 0.224044 -0.908373 -3.710390
C -38.337625 41.655197 -35.934403 0.542300 0.520462 0.566999
H -36.611496 42.124692 -37.157543 0.142400 0.159704 -0.825007
H -35.056766 42.332629 -35.128434 -0.524375 -0.152700 -0.659226
H -35.856973 41.744002 -32.826496 -0.423177 0.042914 -1.247610
H -38.247836 41.466363 -32.495771 0.069123 -0.394646 -0.901888
H -39.888677 41.305185 -34.730852 -0.207044 0.094296 1.677260
H -38.927084 41.531502 -36.834078 -0.802789 -0.023379 0.114710
12
Properties=species:S:1:pos:R:3:forces:R:3 energy=-6308.901423204398
C -36.903837 41.911085 -36.098092 1.836221 1.410949 -1.377909
C -36.066103 42.040348 -34.998049 -1.222037 -1.259651 0.516286
C -36.682309 41.845711 -33.733754 1.508625 -0.450620 -0.670335
C -37.982124 41.411450 -33.535395 -0.955014 1.285749 -3.704593
C -38.845171 41.472642 -34.725945 1.321739 -0.245161 0.589424
C -38.259019 41.761258 -35.968390 -2.097856 0.461674 -0.497897
H -36.458889 42.163208 -37.081158 -0.318422 -0.407808 0.192414
H -34.974438 42.014751 -35.093277 -0.221173 0.558583 0.056803
H -35.942805 41.910953 -32.966036 0.080147 -0.072355 1.292848
H -38.328548 41.212946 -32.572119 -0.802787 -0.429751 1.569793
H -39.913147 41.283759 -34.832461 -0.124449 -0.095803 0.960432
H -38.952649 42.005495 -36.850065 0.995005 -0.755808 1.072735
12
Properties=species:S:1:pos:R:3:forces:R:3 energy=-6308.673671668136
C -37.075873 42.012932 -36.231520 0.300018 -1.481349 5.121591
C -36.074348 41.978563 -35.166035 -2.177880 0.523189 0.261084
C -36.481369 41.788054 -33.792364 0.029085 0.178944 -1.631649
C -37.822382 41.549228 -33.536303 -0.757400 -0.679224 1.567966
C -38.837352 41.444421 -34.585895 1.134568 0.128340 5.919050
C -38.452563 41.677509 -35.812388 2.415228 1.163512 -5.129338
H -36.624045 42.040014 -37.172428 -0.214120 0.325524 -2.007746
H -35.030545 42.254519 -35.283120 0.184048 -0.139964 -0.643270
H -35.735199 41.851784 -32.979411 -0.359753 -0.072902 -0.342549
H -38.050985 41.387728 -32.412159 -0.192843 0.223896 -1.821283
H -39.852398 41.315476 -34.202597 -0.079002 -0.192802 -0.591171
H -39.213874 41.643705 -36.572287 -0.281952 0.022837 -0.702685
12
Properties=species:S:1:pos:R:3:forces:R:3 energy=-6308.726304740634
C -36.932922 41.922335 -36.143111 0.106609 -0.437363 -0.061273
C -36.059239 42.017325 -35.060491 -2.244886 -0.417417 0.732313
C -36.599669 41.830583 -33.779892 -0.718322 -0.385247 -0.359409
C -37.996314 41.477351 -33.587119 3.396728 0.346190 0.761409
C -38.864160 41.466144 -34.610011 -2.356765 -0.231140 -2.628657
C -38.273390 41.761480 -35.880959 -2.426138 0.239340 -1.880724
H -36.601490 41.819826 -37.197037 0.001231 0.684167 0.560828
H -35.093501 42.301197 -35.291687 2.442714 0.309140 0.104219
H -35.953976 41.828257 -32.904115 0.054605 0.135395 0.086653
H -38.185654 41.141411 -32.607539 -0.817523 -0.279639 1.348780
H -40.006887 41.136403 -34.545209 2.443923 0.907714 -0.015950
H -38.882319 41.974069 -36.826208 0.117824 -0.871142 1.351812
12
Properties=species:S:1:pos:R:3:forces:R:3 energy=-6309.039510389645
C -37.032023 42.041844 -36.177694 1.604914 -1.031076 0.571167
C -36.063882 41.963242 -35.128771 -0.912245 0.411344 1.910611
C -36.550106 41.766441 -33.762710 -0.613208 0.409523 -2.763997
C -37.918771 41.527451 -33.523637 0.658145 0.316994 1.597560
C -38.790609 41.404209 -34.597068 -0.815732 1.018563 -0.845253
C -38.375443 41.756114 -35.909569 0.874729 -1.075421 1.666823
H -36.600130 42.047030 -37.185765 -0.505090 0.453107 -0.070735
H -34.961227 42.164738 -35.232973 -1.109332 -0.240551 -0.331524
H -35.912056 41.905488 -32.927901 0.886055 -0.037873 0.765657
H -38.220367 41.546201 -32.417319 0.021204 -0.436553 -1.601072
H -39.877788 41.209251 -34.506571 0.571765 -0.084726 0.381978
H -39.091019 41.518123 -36.650045 -0.661207 0.296669 -1.281216
12
Properties=species:S:1:pos:R:3:forces:R:3 energy=-6308.984929499566
C -36.890513 41.989991 -36.146742 0.092677 0.688096 0.575844
C -36.112769 41.966640 -34.947511 1.068868 -0.344574 0.543496
C -36.646456 41.809637 -33.631938 0.874963 -0.149488 -2.238300
C -37.991906 41.543983 -33.600088 -1.888928 -1.455247 0.523942
C -38.823870 41.426363 -34.743172 2.493573 0.915000 -0.594682
C -38.267427 41.756271 -36.021817 -0.858853 0.185304 0.918200
H -36.513182 42.319511 -37.152865 0.096198 -0.570533 1.019257
H -35.004895 41.888654 -34.894028 -0.436461 0.585152 -0.888596
H -35.938661 41.695308 -32.787051 -0.641540 0.252740 -0.295224
H -38.413927 41.143650 -32.675600 -0.171326 0.366467 0.258908
H -39.800280 41.020161 -34.647940 -1.060400 -0.045961 0.092447
H -38.966542 41.923351 -36.860568 0.431230 -0.426956 0.084708
12
Properties=species:S:1:pos:R:3:forces:R:3 energy=-6308.832194116800
C -36.917994 41.999254 -36.108806 1.836668 0.318297 0.612571
C -36.080667 41.951549 -34.951213 1.000680 -1.056843 -0.248258
C -36.666027 41.788653 -33.666296 0.385129 0.336622 -0.872999
C -38.016037 41.485100 -33.529498 -0.589182 0.238483 -2.074771
C -38.761016 41.406773 -34.780249 -1.537920 0.582331 1.162540
C -38.288143 41.798464 -36.056902 0.142330 -0.534133 1.953733
H -36.372692 42.288236 -36.990585 -0.075864 -0.067680 -0.832817
H -34.891358 41.817359 -35.061431 -2.651566 0.941363 0.168286
H -36.067215 42.051373 -32.812616 0.414547 -0.369778 0.616065
H -38.469731 41.414486 -32.522463 -0.033498 -0.167104 -0.687763
H -39.867592 41.243942 -34.738484 0.760837 -0.097196 0.264366
H -39.005318 41.927061 -36.872253 0.347839 -0.124363 -0.060953
12
Properties=species:S:1:pos:R:3:forces:R:3 energy=-6308.455474732114
C -36.859122 42.037094 -36.137450 0.257191 -0.107658 -0.096963
C -36.045416 41.973524 -34.958533 -0.323250 0.054515 1.097923
C -36.739367 41.855550 -33.653817 2.425900 -0.404297 -2.039978
C -38.030411 41.440434 -33.627822 -0.867183 -0.996387 2.822613
C -38.793483 41.336146 -34.762345 -2.070543 2.085635 -0.530301
C -38.243118 41.822147 -35.965127 0.531496 -1.096701 0.575995
H -36.575789 42.229655 -37.249546 0.299612 -0.357412 2.129621
H -34.913411 41.883408 -34.930698 -1.290729 0.668938 -0.343731
H -36.263552 41.912653 -32.671610 0.667072 0.041971 -0.389188
H -38.405316 41.091507 -32.592665 0.083868 0.775132 -1.548031
H -39.912918 41.426014 -34.560929 1.133869 -0.988841 -0.781159
H -38.828935 41.780922 -36.847860 -0.847303 0.325104 -0.896801
12
Properties=species:S:1:pos:R:3:forces:R:3 energy=-6308.301000129635
C -36.700300 41.911419 -36.005868 -2.280613 0.937286 -4.992808
C -36.134573 41.787208 -34.811567 1.089492 1.851121 2.602782
C -36.826697 41.837320 -33.576400 -0.020282 -1.108829 -0.969365
C -38.164740 41.462369 -33.635127 1.007696 1.570172 -3.499852
C -38.772117 41.566547 -34.935911 -1.058904 -1.164080 1.774541
C -38.096494 41.855815 -36.096811 -1.235046 -1.049960 -0.148977
H -36.322021 42.268937 -37.029357 0.825400 -0.925771 1.665740
H -35.141668 42.114479 -34.741510 1.931654 0.080661 0.085820
H -36.244818 42.194718 -32.734755 -0.116843 -0.582378 0.610080
H -38.797675 41.173060 -32.891181 -1.505280 -0.399473 2.630934
H -39.849982 41.317698 -34.956515 0.339986 0.201822 -0.165264
H -38.734361 41.782172 -37.017253 1.022741 0.589429 0.406368
12
Properties=species:S:1:pos:R:3:forces:R:3 energy=-6308.942755501305
C -37.060731 41.991705 -36.141973 2.270457 -0.141531 -1.655628
C -36.127164 42.025648 -35.087161 -0.844943 -1.109116 1.851690
C -36.516186 41.772088 -33.709799 -1.001069 -0.071549 -2.155016
C -37.887945 41.485060 -33.559085 1.233116 1.107086 1.041349
C -38.746131 41.487592 -34.632545 -3.096386 -0.303521 -0.071756
C -38.373239 41.712085 -35.957312 -0.735222 0.026674 1.335215
H -36.723778 42.012692 -37.220652 0.132720 0.347568 1.140851
H -35.106949 41.939079 -35.331216 1.518251 0.564763 -0.368873
H -35.939699 41.717601 -32.770293 0.477665 0.263866 -0.862076
H -38.191905 41.495440 -32.510360 -0.677290 -0.561858 -0.144359
H -39.850407 41.342232 -34.452762 0.981793 -0.015204 0.049197
H -39.081474 41.706508 -36.773212 -0.259091 -0.107179 -0.160593
12
Properties=species:S:1:pos:R:3:forces:R:3 energy=-6308.396751928997
C -36.906288 42.085963 -36.109817 0.047648 -2.129894 0.640210
C -36.107831 41.871545 -34.941696 2.769376 2.299987 0.182619
C -36.688331 41.832688 -33.682693 0.747272 -1.114010 -0.339984
C -37.997187 41.493313 -33.650494 -0.172821 0.318619 3.191302
C -38.725635 41.404593 -34.757069 -4.399692 0.422001 -0.106937
C -38.287464 41.791972 -35.977786 1.388516 -0.170572 -1.241439
H -36.532460 41.971926 -37.122612 0.574465 0.697249 -0.106096
H -34.946827 42.028052 -34.752136 -1.997679 -0.326452 -1.644903
H -36.123263 41.775440 -32.769371 0.566885 0.281967 0.313957
H -38.520242 41.398189 -32.704774 0.025160 -0.248147 0.373187
H -39.809645 41.313146 -34.502660 0.438412 -0.466272 -0.905582
H -38.945800 41.656546 -36.829437 0.012459 0.435522 -0.356334
12
Properties=species:S:1:pos:R:3:forces:R:3 energy=-6308.517030454557
C -37.035225 41.963725 -36.098742 3.634604 0.001521 0.150938
C -36.092522 42.034763 -35.017027 1.491856 -0.853411 -4.053356
C -36.520536 41.765744 -33.769170 -1.414604 0.654316 -0.079461
C -37.893721 41.535806 -33.576668 -0.585667 -0.444340 -1.140537
C -38.859381 41.450033 -34.659670 1.467482 0.057940 1.415302
C -38.358088 41.696900 -35.944360 -2.507010 1.481321 -1.434986
H -36.453839 41.961890 -37.031299 -1.021717 0.470578 -0.445137
H -34.974999 42.064447 -35.399645 -2.013104 0.288013 1.285847
H -35.826644 41.920116 -32.996641 0.669078 -0.212588 1.637537
H -38.097955 41.406573 -32.542221 -1.108305 -0.349081 0.901235
H -39.909946 41.148903 -34.523988 0.355829 0.374671 0.268121
H -39.057936 42.035818 -36.829677 1.031558 -1.468939 1.494496
12
Properties=species:S:1:pos:R:3:forces:R:3 energy=-6308.954761206362
C -36.882613 41.932317 -36.108018 1.559949 1.763576 0.933428
C -36.111052 42.115023 -34.953855 0.878320 -1.286576 -0.220617
C -36.657333 41.727871 -33.724091 -1.016240 -0.394448 -0.153474
C -38.039484 41.450318 -33.581349 -0.241974 -0.547720 -0.783443
C -38.819400 41.481758 -34.742067 -0.753455 0.896558 0.351123
C -38.200876 41.788981 -35.949419 -3.046042 -1.327085 -0.771811
H -36.596824 42.126998 -37.111613 1.081936 0.165083 -0.836920
H -35.023944 42.263468 -35.045538 -0.273868 0.054570 0.154595
H -36.008483 41.382882 -32.954893 0.735073 0.453532 1.042692
H -38.570547 41.046618 -32.703635 0.783653 0.351902 0.177022
H -39.928658 41.386575 -34.713504 0.717205 -0.182418 0.081647
H -38.773348 41.743789 -36.875777 -0.424556 0.053024 0.025758
12
Properties=species:S:1:pos:R:3:forces:R:3 energy=-6308.856852723750
C -37.087604 41.991434 -36.171126 3.710523 0.727744 1.544387
C -36.104099 41.990328 -35.141480 -1.328825 -0.333685 -0.143973
C -36.547811 41.815089 -33.817535 1.116597 -1.490578 0.683792
C -37.842698 41.463087 -33.470728 -2.038479 1.063631 -3.666267
C -38.772595 41.483119 -34.609726 -1.626084 -1.288119 4.206715
C -38.362330 41.702551 -35.873435 -1.640016 0.824373 -1.884983
H -36.791481 42.412662 -37.098277 0.200948 -0.133446 -1.321845
H -35.047873 42.016647 -35.387809 0.184850 0.426161 0.102289
H -35.830125 41.630786 -33.022514 0.549127 0.551864 0.119886
H -38.273551 41.346106 -32.492298 0.282231 -0.186649 0.564255
H -39.872715 41.269290 -34.372129 1.381101 0.296397 -0.440484
H -39.010056 41.878510 -36.731291 -0.791974 -0.457692 0.236228
12
Properties=species:S:1:pos:R:3:forces:R:3 energy=-6308.569329174149
C -37.069313 41.942553 -36.237692 0.402415 0.557735 2.626670
C -36.051485 42.041604 -35.125040 -3.964833 -0.968278 -1.001506
C -36.449826 41.808841 -33.785818 -2.847113 -0.989016 -1.012452
C -37.842258 41.478170 -33.447507 0.922920 1.438584 -3.686908
C -38.843710 41.512702 -34.599866 1.730430 -1.226465 4.357271
C -38.470259 41.673121 -35.909593 1.986461 0.876026 -0.455568