16
Properties=species:S:1:pos:R:3:forces:R:3 energy=-13487.526047997968
C 1.611350 -0.189584 0.020896 1.003146 -0.600027 0.859975
C 0.215397 -0.351718 0.066721 -2.643881 4.350919 -0.393458
C -0.571782 0.917170 -0.029644 -0.269474 -0.261375 -0.363394
O -0.005348 2.100418 0.039861 2.396792 0.252821 -0.194935
C -1.989538 0.891999 -0.255466 2.042197 0.246254 1.253240
C -2.543147 -0.368926 -0.236491 -3.448792 2.876096 -2.332610
C -1.901469 -1.532147 0.021492 -1.098789 -2.615343 0.811308
C -0.566392 -1.456996 0.233568 2.333489 -2.453901 0.402757
O 2.212897 0.901625 -0.109400 -0.216270 0.335402 -0.138255
O 2.368530 -1.300662 0.217119 1.118827 0.865586 -0.567048
H 1.072915 1.888109 0.002169 -1.656783 0.258831 0.037177
H -2.571276 1.852916 -0.258456 0.580568 -0.984310 -0.378047
H -3.547973 -0.225826 -0.730429 0.212695 -1.273108 1.095199
H -2.500555 -2.484106 0.166214 0.893277 0.980924 -0.328909
H 0.096889 -2.272817 0.516551 -0.607314 -0.943751 -0.076616
H 3.270315 -0.861027 0.093913 -0.639688 -1.035017 0.313617
16
Properties=species:S:1:pos:R:3:forces:R:3 energy=-13487.761240100021
C 1.646594 -0.171223 -0.061851 -0.858562 -1.870229 1.189631
C 0.175468 -0.303721 0.025408 -0.840816 2.112322 -1.128923
C -0.627118 1.031938 -0.073411 2.789363 -2.740490 0.963425
O 0.011637 2.188658 0.030956 3.063734 -0.646476 -0.387744
C -1.983733 0.953488 -0.078862 -2.552037 -2.229297 0.803351
C -2.606439 -0.338885 0.110367 0.032433 -0.045310 -1.476962
C -1.899998 -1.553338 0.019903 0.811903 0.540380 1.257090
C -0.507551 -1.550516 0.031751 0.620373 1.376035 -0.241864
O 2.347829 0.835840 0.060743 -0.587127 1.474289 -0.430235
O 2.265546 -1.384667 -0.095644 -0.175726 -0.073394 -0.384652
H 1.105734 1.878838 0.038060 -2.291370 0.870491 0.062891
H -2.625252 1.818508 -0.009727 0.004036 0.482135 -0.155094
H -3.700257 -0.522488 0.115880 0.371664 0.893955 0.251383
H -2.313079 -2.512520 0.289014 -0.838258 -0.255930 -0.351189
H 0.042333 -2.491940 0.077880 0.113878 0.140784 -0.034616
H 3.215658 -1.178202 -0.129909 0.336512 -0.029265 0.063507
16
Properties=species:S:1:pos:R:3:forces:R:3 energy=-13487.753944444845
C 1.649917 -0.185305 0.043304 2.992681 4.311659 -0.707231
C 0.252682 -0.151450 -0.071138 -3.492020 -2.707357 -0.139702
C -0.589114 0.972477 -0.059575 -0.660515 0.183858 1.111121
O -0.086276 2.203267 0.022469 0.945682 0.742455 -0.788649
C -2.003930 0.820293 0.124948 0.136415 -1.184572 -0.142886
C -2.616191 -0.417295 -0.000821 2.579636 -0.425089 -0.565252
C -1.796631 -1.570114 -0.270973 -1.530879 0.323173 0.355819
C -0.447973 -1.457256 -0.122219 1.554300 0.606085 -1.104326
O 2.428489 0.843192 -0.147444 -2.130181 -2.429086 0.476364
O 2.110541 -1.363910 0.395745 0.198106 -1.591026 0.413448
H 0.866186 2.125162 -0.290383 -0.297775 0.109334 0.600466
H -2.723079 1.549978 0.443114 0.379437 1.307029 -0.087330
H -3.660840 -0.440283 0.131308 -1.386362 -0.399279 0.013543
H -2.246991 -2.533062 -0.561086 0.104674 0.257405 0.401087
H 0.160111 -2.369759 -0.273837 -0.171261 0.556192 0.223084
H 3.066716 -1.345915 0.501095 0.778063 0.339220 -0.059558
16
Properties=species:S:1:pos:R:3:forces:R:3 energy=-13487.806377979410
C 1.584803 -0.208251 -0.014912 1.409410 1.545997 0.010911
C 0.136663 -0.267421 -0.053380 0.766419 -1.355912 0.870354
C -0.537101 0.941772 -0.100938 -1.148166 0.620235 1.683340
O 0.075717 2.114701 0.030059 -0.592720 1.210548 -0.655124
C -1.969572 0.944453 0.043982 1.934076 -0.033403 -1.614152
C -2.581522 -0.284330 -0.084277 -0.682305 -0.756577 0.639936
C -1.885496 -1.538641 -0.023541 -0.302759 -0.902900 0.867400
C -0.535833 -1.521810 0.205575 2.173973 1.477225 -2.447848
O 2.244744 0.875677 0.085839 -0.607934 -1.587384 -0.180074
O 2.267286 -1.388029 -0.108844 -0.638448 0.102650 0.328204
H 1.065082 2.012415 0.011435 0.206093 -0.652695 0.091585
H -2.357674 1.963602 -0.060051 -0.733828 -0.427881 0.358272
H -3.662260 -0.321695 -0.065149 -0.423490 -0.032005 -0.218163
H -2.326469 -2.568096 -0.007947 -0.433305 1.156429 -0.094645
H 0.255412 -2.299674 0.142286 -1.285617 -0.428339 0.523142
H 3.167163 -1.175932 0.195520 0.358600 0.064011 -0.163138
16
Properties=species:S:1:pos:R:3:forces:R:3 energy=-13487.818733868564
C 1.627682 -0.134877 0.126872 -0.123463 0.517727 1.124298
C 0.200643 -0.342338 0.106347 -0.218229 0.799124 -0.884737
C -0.475855 0.885773 -0.172577 -3.078460 -1.945738 0.402323
O -0.028953 2.090897 -0.245274 1.533004 1.975348 -0.432338
C -1.878087 0.784858 -0.350412 1.179347 -1.502128 0.626317
C -2.580826 -0.360700 -0.112645 -1.460555 -0.530454 -0.549028
C -1.929246 -1.598126 0.121459 0.004359 -0.065720 0.153037
C -0.513288 -1.562397 0.160011 -0.821381 0.006023 -0.304178
O 2.043085 1.027932 0.342409 1.559267 -0.873127 -0.437085
O 2.419343 -1.212307 0.029406 1.427449 -0.008348 0.215132
H 0.975414 2.006566 -0.108822 -0.212253 0.029295 0.275430
H -2.411113 1.577418 -0.720590 -1.116875 2.465207 -0.637632
H -3.714328 -0.252361 -0.271803 1.520013 -0.622324 0.398970
H -2.616444 -2.485435 0.214979 1.251368 0.481531 -0.059718
H 0.132168 -2.427327 0.102620 -0.166491 -0.627984 0.415922
H 3.375480 -0.946568 0.216656 -1.277100 -0.098433 -0.306714
16
Properties=species:S:1:pos:R:3:forces:R:3 energy=-13487.891520980014
C 1.701770 -0.167756 0.118401 -2.651884 1.291459 -0.015207
C 0.160436 -0.179005 0.083827 2.193246 -0.374669 -0.041166
C -0.613202 0.965136 -0.103347 -1.167609 0.527025 -0.386029
O -0.120192 2.226992 -0.267815 0.540548 -1.049405 0.199166
C -2.022806 0.796896 -0.239321 2.596248 2.136490 0.351023
C -2.604033 -0.393674 -0.075896 0.914274 -3.347575 -0.291386
C -1.855896 -1.632565 0.113912 2.161200 2.906217 0.046959
C -0.430308 -1.435058 0.158654 -1.427605 -2.015329 0.889923
O 2.383238 0.839739 0.091254 0.291627 1.448412 -0.254398
O 2.243322 -1.357071 0.162833 0.532467 -2.061583 -0.142045
H 0.850021 2.038702 -0.227025 0.364628 0.708437 0.033155
H -2.543810 1.715927 -0.464799 -0.509936 0.140827 -0.112337
H -3.592186 -0.384539 -0.401106 -2.260828 -0.581997 0.080080
H -2.251695 -2.604996 0.304217 -0.609481 -0.552455 -0.121069
H 0.304037 -2.275024 0.380004 -1.275599 0.735295 -0.446318
H 3.188832 -1.250617 -0.042926 0.308705 0.088852 0.209650
16
Properties=species:S:1:pos:R:3:forces:R:3 energy=-13487.926000634719
C 1.652404 -0.092550 0.081081 -1.456677 -0.658810 1.074549
C 0.212149 -0.276866 -0.140494 0.706766 -0.961142 0.203293
C -0.572285 0.859979 -0.191200 -1.008572 3.387273 -0.421424
O -0.087356 2.164288 -0.067579 0.814869 -1.935295 -0.242926
C -1.962987 0.791578 -0.334759 -2.940980 -0.820665 0.485599
C -2.621446 -0.455686 -0.140856 1.252342 0.450572 -0.358759
C -1.797466 -1.663089 -0.033591 -1.366316 1.096995 0.194826
C -0.400332 -1.554109 -0.051161 -1.987816 1.379633 -0.172745
O 2.238093 0.980616 0.081048 0.545441 1.081303 -0.499372
O 2.257626 -1.187410 0.570898 0.296334 -0.548441 -0.499434
H 0.910282 1.982590 0.015242 -0.424794 0.648655 -0.130744
H -2.744027 1.646076 -0.452297 2.132437 -0.835778 0.272225
H -3.743633 -0.317725 -0.060705 1.186388 -1.080080 -0.177123
H -2.326844 -2.619532 0.131887 0.500296 0.285434 -0.128446
H 0.174969 -2.417216 0.087915 1.029568 -1.263779 0.074493
H 3.165838 -0.861026 0.666256 0.720713 -0.225875 0.325988
16
Properties=species:S:1:pos:R:3:forces:R:3 energy=-13488.025218895964
C 1.686582 -0.174678 0.106138 -2.400743 -2.261129 0.174126
C 0.145563 -0.225832 0.122634 2.318644 -0.065305 0.557121
C -0.585969 0.969089 0.049563 -0.380217 -0.768666 -0.522607
O -0.069256 2.189014 -0.043176 1.988053 0.719617 0.277293
C -1.967363 0.824869 -0.053301 -1.148384 -1.032150 -0.217189
C -2.660601 -0.384053 -0.203892 3.367845 -0.195279 0.286333
C -1.851081 -1.568206 -0.212724 -1.931728 2.193213 0.590435
C -0.529421 -1.440973 0.096566 0.127678 -0.056646 -0.699301
O 2.291142 0.819049 -0.185806 1.117405 2.468134 -0.192599
O 2.380148 -1.352607 0.323922 -1.766214 0.257962 0.182443
H 0.954967 2.083574 -0.017528 -1.379155 0.033648 -0.196587
H -2.598273 1.651135 -0.164112 -0.586603 1.879604 0.079917
H -3.713605 -0.353617 -0.295703 -1.141450 -0.221724 -0.278855
H -2.366329 -2.465356 -0.387515 -0.279808 -1.662130 -0.047516
H 0.039885 -2.316654 0.169182 1.045579 -1.379919 0.107595
H 3.290782 -1.050258 0.321372 1.049100 0.090767 -0.100610
16
Properties=species:S:1:pos:R:3:forces:R:3 energy=-13487.834058384309
C 1.625707 -0.140883 0.104106 1.515520 -0.771825 1.499260
C 0.165021 -0.239205 0.011106 1.901329 -0.620457 -0.160678
C -0.548022 0.921550 -0.210461 -1.203767 0.835334 -0.173136
O -0.076087 2.165471 -0.486244 1.287961 0.642484 0.642080
C -1.932532 0.835034 -0.254173 -0.911942 0.790665 -0.760062
C -2.578647 -0.397407 -0.119303 -1.354293 -0.137351 1.366178
C -1.869805 -1.539812 0.222755 1.904973 -1.521051 0.034239
C -0.438514 -1.459344 0.264427 -1.087820 -1.789502 -0.669203
O 2.173149 0.814736 0.652335 0.141987 0.098179 -0.775380
O 2.349172 -1.308950 -0.201019 -0.456463 0.823692 -0.017181
H 0.769177 2.376500 0.013179 -0.710398 -0.776462 -0.580050
H -2.399166 1.825886 -0.501859 -0.155908 -1.079890 0.341646
H -3.677715 -0.541589 0.032988 0.602896 0.733231 -0.718309
H -2.348388 -2.549869 0.396415 0.316185 1.237599 -0.169318
H 0.231958 -2.383389 0.315322 -1.029473 1.234650 0.258462
H 3.294214 -1.187833 0.078937 -0.760787 0.300705 -0.118547
16
Properties=species:S:1:pos:R:3:forces:R:3 energy=-13487.854478201943
C 1.684322 -0.117998 0.176904 -0.900819 -0.666950 -1.045702
C 0.196869 -0.237958 0.064968 0.129308 -1.568459 0.201314
C -0.559645 0.931029 -0.063630 -2.153982 0.050188 -0.637865
O -0.062254 2.179321 -0.277388 1.849049 -1.341513 1.799460
C -2.016916 0.759819 -0.145451 1.860197 1.859696 -0.312291
C -2.635008 -0.448299 -0.109552 0.858503 0.541066 -0.472953
C -1.842506 -1.605074 0.017323 -3.991469 -0.455009 0.178982
C -0.537133 -1.525137 0.048143 3.950511 2.420880 0.541884
O 2.246048 0.974747 0.137795 0.309446 0.638284 0.496208
O 2.374217 -1.291039 0.166235 -2.654263 -0.635126 0.189691
H 0.932461 2.006264 0.091475 -1.364807 0.721886 -1.297263
H -2.540559 1.694194 -0.359420 -0.207593 -0.078501 0.076170
H -3.653304 -0.459313 -0.428372 -1.019764 -0.371309 0.344362
H -2.430094 -2.511228 0.159414 0.469823 -0.506681 -0.347398
H 0.067145 -2.380002 0.072591 0.933062 -1.406302 0.237314
H 3.307666 -1.190426 0.176497 1.932800 0.797851 0.048086
16
Properties=species:S:1:pos:R:3:forces:R:3 energy=-13487.866813873465
C 1.623270 -0.150218 0.137572 0.805912 0.893804 -0.841629
C 0.198832 -0.303950 -0.076142 -0.282933 0.708951 0.241592
C -0.559676 0.915757 -0.106117 0.325430 -0.430848 -0.090929
O -0.100444 2.174874 -0.139465 1.629671 0.541101 -0.623063
C -1.912583 0.826187 0.008946 -2.450386 -2.674364 -0.345240
C -2.606533 -0.432341 -0.082524 0.255222 0.578433 -0.013411
C -1.890327 -1.638276 -0.261930 1.868745 3.132510 1.006456
C -0.458830 -1.528772 -0.126120 -1.724493 -1.234722 0.245258
O 2.295486 0.810963 -0.228614 -0.377791 1.730099 -0.815045
O 2.299270 -1.094539 0.740474 -0.883756 -3.024007 1.240292
H 0.839275 2.181251 -0.499412 -0.578995 -0.336909 0.690961
H -2.514920 1.691979 0.087834 -0.437207 1.149089 0.112597
H -3.728826 -0.458881 0.028440 1.097374 0.124413 -0.224930
H -2.427166 -2.527794 -0.194591 -0.562761 -1.843254 -0.164573
H 0.060525 -2.466033 0.112242 0.299005 0.292429 -0.432490
H 3.224243 -0.899518 0.588111 1.016963 0.393276 0.014153
16
Properties=species:S:1:pos:R:3:forces:R:3 energy=-13486.858289705626
C 1.699415 -0.196826 0.043883 2.880388 2.216287 2.768938
C 0.237814 -0.093521 -0.043359 -0.347625 -1.591545 0.257050
C -0.672239 0.965391 -0.221067 2.957846 2.896592 -0.470114
O -0.368398 2.312109 -0.517919 -0.028989 -1.242616 0.168401
C -1.996517 0.761826 -0.090224 -1.665954 3.196584 -0.172516
C -2.524048 -0.423769 0.059986 -3.544388 -3.454706 -0.834789
C -1.721048 -1.528122 -0.013305 0.447008 -1.431319 2.261272
C -0.363580 -1.352411 0.217703 0.380146 -0.930355 -2.251476
O 2.473741 0.764556 0.317042 -1.550265 -1.356039 -1.397751
O 2.188260 -1.499548 0.230545 0.976425 0.204395 -0.140533
H 0.584583 2.425349 -0.664519 0.365994 -0.182950 0.158327
H -2.749945 1.524728 -0.206853 0.395664 1.075632 -0.010342
H -3.650299 -0.602141 0.001368 1.337276 0.488944 0.296692
H -2.248260 -2.454047 0.156081 0.325149 -0.820298 -0.241209
H 0.395303 -2.164492 0.195766 -1.138615 0.127032 0.473951
H 3.142246 -1.514183 0.600415 -1.790060 0.804363 -0.865902
16
Properties=species:S:1:pos:R:3:forces:R:3 energy=-13487.955440871570
C 1.694019 -0.204255 0.059080 -2.185564 0.730599 -0.850380
C 0.132682 -0.226080 -0.166367 2.570739 0.927373 0.531678
C -0.645538 0.983000 -0.059470 -0.410975 -0.239205 0.567162
O -0.098577 2.213513 -0.079305 0.751042 -0.144678 -0.081803
C -2.038676 0.919668 0.174180 0.028959 -0.398980 -0.847257
C -2.591581 -0.373738 0.140177 2.843041 0.403970 -0.564235
C -1.845287 -1.537745 -0.129644 0.502919 -0.259957 0.050604
C -0.446078 -1.472515 -0.309474 -1.423908 0.087023 0.731677
O 2.421438 0.778907 0.005617 -0.369638 1.141895 -0.153334
O 2.256321 -1.393410 0.297199 0.744031 -0.737794 -0.438013
H 0.867269 2.049360 -0.188979 0.302037 0.361149 0.062350
H -2.661653 1.864481 0.217266 0.783723 -1.113413 0.168508
H -3.585666 -0.505045 0.291335 -3.232612 -0.257468 0.524884
H -2.348146 -2.509933 -0.087436 0.027004 0.156220 -0.218379
H 0.222658 -2.324924 -0.413394 -0.300124 -0.205343 -0.017405
H 3.215557 -1.179164 0.107551 -0.630672 -0.451391 0.533943
16
Properties=species:S:1:pos:R:3:forces:R:3 energy=-13488.039839178471
C 1.642580 -0.169262 0.113514 -0.034043 -0.449756 1.097853
C 0.162923 -0.162176 0.283536 -0.117257 -2.147481 -1.683817
C -0.588125 0.973666 -0.159977 -0.589960 -0.656279 0.528553
O 0.007320 2.191214 -0.270753 -1.955497 -0.176826 -0.557264
C -2.006081 0.788624 -0.405926 0.108100 1.633368 0.402466
C -2.631034 -0.446002 -0.199609 0.135197 1.002668 -0.095083
C -1.844022 -1.540449 0.163427 -0.934630 -1.032382 -0.048221
C -0.501843 -1.450413 0.371314 0.849244 2.138069 0.079043
O 2.296491 0.845935 0.280238 0.635034 1.278856 -0.198536
O 2.300721 -1.362852 -0.137478 1.188055 0.709067 0.230845
H 0.886322 2.091980 0.101997 1.464266 -0.187265 0.300603
H -2.634763 1.714103 -0.617282 0.880829 -1.095776 0.093402
H -3.737858 -0.517788 -0.258157 0.689117 -0.033886 -0.177297
H -2.298847 -2.523507 0.228115 -0.239116 -0.177578 0.190577
H 0.073758 -2.302702 0.672249 0.387235 -0.519626 -0.009101
H 3.318637 -1.138111 -0.076141 -2.466574 -0.285174 -0.154021
16
Properties=species:S:1:pos:R:3:forces:R:3 energy=-13487.717296558989
C 1.653188 -0.124838 0.113151 -2.046292 -1.340490 0.997875
C 0.201195 -0.286432 0.188557 0.118063 1.744671 -0.890747
C -0.551641 0.910805 -0.040179 -0.444400 -0.754546 -0.618473
O 0.061957 2.079241 -0.212616 -0.933872 0.986123 0.154084
C -1.935356 0.848695 -0.288144 -1.105721 2.064455 -0.081614
C -2.671559 -0.353842 -0.108509 4.989140 0.076059 -0.333966
C -1.874661 -1.550602 0.007761 0.254332 0.157378 -0.019596
C -0.447336 -1.488487 0.114842 -2.922577 -0.748906 -0.236044
O 2.188412 0.953974 0.272849 1.951242 0.697106 0.013670
O 2.234855 -1.327066 -0.025941 -0.115684 -0.386030 -0.294135
H 0.979970 1.947612 0.114164 0.746292 0.020294 -0.079265
H -2.349200 1.932262 -0.634516 0.395471 -2.672452 1.023314
H -3.690774 -0.336605 -0.100756 -2.906378 -0.203292 -0.280155
H -2.321178 -2.564009 -0.103929 0.042928 0.727869 0.352625
H 0.080348 -2.415516 0.067376 0.522583 -0.581135 0.167258
H 3.140391 -1.284370 0.263009 1.454875 0.212894 0.125170
16
Properties=species:S:1:pos:R:3:forces:R:3 energy=-13488.031860268782
C 1.651654 -0.107974 0.119585 -0.999335 -2.437895 0.428636
C 0.161729 -0.206273 -0.007759 1.232964 1.975781 -0.640830
C -0.646305 0.985141 -0.153592 2.343500 -0.797711 0.382853
O -0.000286 2.195717 -0.231362 -2.855447 0.016154 -0.006603
C -2.020744 0.782801 -0.132199 1.208735 1.388446 -0.379404
C -2.589564 -0.452987 -0.077654 -2.763942 -0.194798 1.387334
C -1.808828 -1.579412 0.005558 1.049981 -0.289516 -0.924500
C -0.421924 -1.431594 -0.086605 -0.340162 -1.906003 0.952540
O 2.321060 0.892646 -0.006235 0.663519 0.573372 0.024455
O 2.201353 -1.398551 0.469337 -0.902239 1.830313 -0.538355
H 0.945985 2.048705 -0.190790 1.372878 -0.460628 0.045383
H -2.622437 1.636826 -0.165294 -1.091765 1.455436 -0.060595
H -3.729968 -0.439833 0.144221 1.771423 -0.437891 -0.740738
H -2.200620 -2.562221 -0.001117 -0.648360 -1.025764 0.135295
H 0.275267 -2.287480 -0.039847 -0.647365 0.145511 -0.079036
H 3.155312 -1.267229 0.538896 0.605615 0.165193 0.013564
16
Properties=species:S:1:pos:R:3:forces:R:3 energy=-13487.772149835711
C 1.705572 -0.107457 0.096443 1.098266 -0.581674 0.510658
C 0.248717 -0.174273 0.068957 -1.934539 -1.102280 -0.693822
C -0.588439 0.952861 0.019133 -1.733864 1.069977 -1.517194
O -0.132646 2.217932 -0.253132 -1.461896 -0.310167 0.696698
C -2.037924 0.820481 -0.097460 0.959122 -1.169344 -0.123413
C -2.625264 -0.453639 -0.206566 -0.955749 1.066131 1.324464
C -1.853089 -1.581972 -0.000143 2.175507 0.691325 -0.534750
C -0.456216 -1.446138 -0.016733 0.860037 0.033648 0.403516
O 2.467355 0.864401 0.043002 -1.038544 -0.363746 0.053254
O 2.168146 -1.399941 0.299035 -1.811502 0.125889 -0.657970
H 0.804053 2.239888 -0.093075 1.730193 -0.035064 0.132928
H -2.712974 1.664898 -0.119436 0.314270 0.566131 -0.179661
H -3.739071 -0.566581 -0.261291 0.854268 0.296041 -0.037551
H -2.229223 -2.546570 0.199094 -0.764296 -1.227955 -0.345608
H 0.164169 -2.356532 -0.153600 -0.355630 0.517492 0.561483
H 3.040077 -1.428801 0.642548 2.064358 0.423594 0.406969
16
Properties=species:S:1:pos:R:3:forces:R:3 energy=-13487.605716183141
C 1.655218 -0.162242 0.005424 -0.022644 1.721385 1.912992
C 0.176481 -0.287359 -0.016493 0.124298 -0.944159 -0.545938
C -0.558047 0.884643 -0.006696 -0.862866 3.063928 -1.455799
O 0.046694 2.151538 -0.110184 0.297835 -1.212487 -0.434675
C -2.029159 0.830366 -0.097318 2.359086 -0.019606 -0.149024
C -2.626940 -0.405273 -0.163634 -1.647664 0.295405 0.931359
C -1.879919 -1.628867 -0.123595 0.119004 3.141184 0.078690
C -0.528321 -1.544040 -0.068762 2.262264 1.313193 0.103334
O 2.271275 0.928880 -0.103059 -0.397778 -0.946464 -0.918495
O 2.294346 -1.196582 0.577736 -0.292055 -1.169103 -0.503198
H 1.068865 2.061599 -0.406644 -2.108332 -0.663138 1.145515
H -2.649641 1.717808 -0.256022 0.455054 0.104248 0.349276
H -3.762321 -0.241579 -0.064365 1.399944 -1.286903 -0.543575
H -2.289423 -2.549113 -0.010896 -1.723721 -2.787426 -0.006311
H 0.176243 -2.361165 -0.057466 -0.285922 -0.850452 0.048621
H 3.238861 -0.974295 0.623516 0.323496 0.240395 -0.012770
16
Properties=species:S:1:pos:R:3:forces:R:3 energy=-13487.545075839984
C 1.619684 -0.200257 0.001093 2.293311 -0.930156 -1.014212
C 0.219057 -0.260514 -0.223593 -3.776466 0.433450 1.138423
C -0.610036 0.983422 -0.060879 1.638629 -1.721588 0.063308
O 0.032109 2.125789 0.072750 0.157968 1.359439 0.059304
C -2.028942 0.939389 0.068545 0.482366 0.937130 0.380211
C -2.622326 -0.304585 0.101263 -1.934568 -1.448403 0.187659
C -1.908457 -1.542245 0.058629 -0.722210 -0.216804 -1.048697
C -0.582294 -1.455296 -0.180707 2.365829 0.490409 0.267575
O 2.333314 0.814212 -0.157794 -0.816007 0.379244 0.470474
O 2.349664 -1.397893 0.250033 -0.134170 1.877563 -0.788335
H 1.029785 1.988263 0.024449 -0.325942 -0.360266 -0.198834
H -2.600790 1.908191 0.300376 0.835531 -1.430582 -0.612814
H -3.733318 -0.384434 0.152831 0.619052 0.292546 0.172718
H -2.192351 -2.650246 -0.030952 -0.941788 1.943319 0.443182
H -0.145307 -2.420704 -0.277585 1.196519 -0.639442 -0.148316
H 3.254513 -0.995998 0.020421 -0.938054 -0.965859 0.628353
16
Properties=species:S:1:pos:R:3:forces:R:3 energy=-13487.643214481619
C 1.651289 -0.147836 -0.009774 1.350432 0.857457 0.009154
C 0.158897 -0.166623 -0.008479 2.336431 -5.430169 -0.347745
C -0.580693 0.921818 -0.026635 -1.970951 2.223628 -0.484089
O 0.012483 2.096402 0.004598 -4.721537 2.734105 -0.440206
C -1.999880 0.840404 -0.067846 1.217000 2.290795 0.221147
C -2.635185 -0.319959 0.110591 -2.114228 -2.757693 -0.051369
C -1.891492 -1.544799 0.002550 -0.549506 -0.696431 1.240252
C -0.526898 -1.446187 -0.056737 1.461436 0.211696 1.060225
O 2.390386 0.884969 -0.078970 -1.785839 -1.936476 0.251512
O 2.242635 -1.411750 0.068487 -2.013613 0.891704 -0.073064
H 0.903407 1.980589 0.119684 4.832301 -0.532412 0.308679
H -2.493548 1.798159 -0.130129 -0.412562 0.304127 0.204764
H -3.748654 -0.355680 0.356084 1.323263 0.080895 -0.617784
H -2.295111 -2.576217 0.258234 0.034893 1.373075 -0.571829
H 0.110253 -2.313713 0.185092 -0.351335 0.104151 -0.655895
H 3.175953 -1.249567 -0.023845 1.363815 0.281547 -0.053752
16
Properties=species:S:1:pos:R:3:forces:R:3 energy=-13487.918352242377
C 1.695277 -0.239040 0.010002 -1.358067 -0.345677 0.073585
C 0.218548 -0.251866 0.123677 -0.019090 0.850975 -1.026509
C -0.574157 0.936066 -0.056676 -0.131899 0.279594 1.511627
O -0.090639 2.200215 0.100101 0.106482 -0.056050 -0.933482
C -1.993610 0.893232 -0.105438 0.223008 -0.318522 -0.758685
C -2.650523 -0.327858 -0.025503 1.655379 0.473624 0.292355
C -1.808923 -1.447739 0.068785 -4.366274 -1.573857 -0.069566
C -0.477785 -1.440945 0.114079 1.264413 -0.103330 0.004587
O 2.284751 0.808292 0.130573 1.610953 1.238478 -0.165564
O 2.283083 -1.442647 -0.279329 0.340037 0.174456 -0.000267
H 0.853735 2.175099 -0.147657 0.507728 -0.042886 0.391852
H -2.493783 1.801999 -0.418729 -0.156546 0.390514 0.477956
H -3.720672 -0.469673 0.052448 -0.260398 0.235064 -0.329082
H -2.444622 -2.352265 0.033111 0.918452 -0.272509 0.240000
H 0.099479 -2.328379 0.147950 0.408040 -1.111500 0.014208
H 3.255867 -1.305148 -0.430627 -0.742218 0.181624 0.276986
16
Properties=species:S:1:pos:R:3:forces:R:3 energy=-13487.551244205843
C 1.633944 -0.096525 0.065464 3.243002 0.464636 0.573530
C 0.271838 -0.292235 -0.024542 -4.960025 -1.750134 -0.106827
C -0.568547 0.850215 -0.192692 -0.388727 0.723297 0.997179
O 0.012563 2.026140 -0.234739 0.096790 1.792622 -0.756155
C -1.995107 0.851450 -0.110753 1.007658 0.312666 -0.214076
C -2.617789 -0.393161 -0.013982 -2.985023 4.171181 -1.584288
C -1.937213 -1.530958 0.079640 4.277615 -1.833536 0.151803
C -0.492656 -1.534429 0.131060 -0.773534 0.742177 0.703642
O 2.243069 1.030600 0.079605 -0.579247 -2.122998 -0.359853
O 2.302285 -1.290505 0.196791 2.568605 1.404326 -0.203737
H 1.021368 1.912020 -0.278648 -0.203233 -0.145940 0.391948
H -2.539681 1.849300 -0.164694 0.688505 -1.371398 -0.014364
H -3.702425 -0.241788 -0.264509 0.508754 -1.057274 0.800013
H -2.358614 -2.496606 0.101238 -0.898063 -1.095037 0.200472
H -0.094484 -2.473178 0.555183 0.488489 0.403911 -0.753566
H 3.305189 -1.021282 0.174817 -2.091566 -0.638498 0.174280
16
Properties=species:S:1:pos:R:3:forces:R:3 energy=-13487.824547027978
C 1.662794 -0.170256 0.043418 -0.319804 0.374401 -0.416113
C 0.180435 -0.249443 -0.038101 0.044605 -3.129911 -0.794685
C -0.565684 0.930990 -0.030107 -0.378013 -0.522457 0.931348
O 0.063543 2.075813 0.189444 -0.330505 0.944351 -0.624791
C -1.969979 0.808549 0.014950 -0.309816 2.017167 -0.108603
C -2.710325 -0.327630 -0.029088 2.150326 -2.666165 -0.524646
C -1.999851 -1.558825 -0.221145 3.294412 1.592879 0.330986
C -0.547652 -1.508020 -0.226305 0.303710 -0.442884 1.094106
O 2.246456 0.928411 -0.138925 -0.076299 -0.743623 0.351365
O 2.422264 -1.278914 0.305683 -0.405772 0.989887 -0.068400
H 1.030052 1.829921 -0.018992 0.111997 0.548751 0.250813
H -2.565578 1.705854 0.065323 0.113961 0.750714 0.243136
H -3.751345 -0.318828 0.139748 -1.323436 0.087164 -0.054032
H -2.351377 -2.546977 -0.276599 -1.223923 -1.132979 -0.056069
H 0.106839 -2.492717 -0.142505 -1.524505 1.899885 -0.484945
H 3.311548 -0.845324 0.375111 -0.126938 -0.567181 -0.069469
16
Properties=species:S:1:pos:R:3:forces:R:3 energy=-13487.953126667131
C 1.613654 -0.169975 0.154560 0.603277 -1.471767 -0.808159
C 0.165745 -0.272533 0.164815 -0.308776 1.003227 0.262989
C -0.575596 1.002146 0.040159 -1.266544 -1.573769 -0.655700
O 0.008884 2.216199 -0.001099 0.795254 -0.172126 0.889436
C -2.018497 0.882052 -0.234700 2.697377 -1.546057 0.422698
C -2.560786 -0.416799 -0.352883 0.364298 1.544585 0.014373
C -1.852957 -1.566960 -0.080281 0.362945 -2.414436 1.147700
C -0.475200 -1.527077 0.195049 -0.777173 0.436899 -0.495987
O 2.208405 0.877771 0.007688 1.058806 1.708826 0.494002
O 2.328827 -1.360570 0.101892 -3.908928 -0.675610 0.452529
H 1.006485 2.141768 0.286539 -1.527920 -0.520348 -0.900658
H -2.610968 1.751054 -0.364610 -0.502130 0.920051 -0.285944
H -3.544370 -0.541111 -0.755090 -0.959388 0.151963 0.124259
H -2.418587 -2.553152 0.087968 0.823318 1.303281 -0.735753
H 0.120983 -2.444790 0.289282 -0.174120 0.317332 0.169559
H 3.242548 -1.215645 0.084319 2.719703 0.987950 -0.095343
16
Properties=species:S:1:pos:R:3:forces:R:3 energy=-13487.838442967315
C 1.719184 -0.091795 0.092223 -1.927520 -0.548233 0.371794
C 0.180800 -0.299025 -0.050179 0.291700 1.735535 -0.616188
C -0.651683 0.884693 -0.149835 3.336095 1.220614 -0.051522
O 0.056908 2.130642 -0.245490 -4.103551 -1.209960 0.022297
C -2.031106 0.814055 -0.112852 0.204170 0.353106 0.124565
C -2.655352 -0.431691 -0.010315 0.652132 0.238216 0.103337
C -1.933609 -1.613426 -0.021222 2.226309 2.297994 -0.101697
C -0.504548 -1.499350 -0.084387 -1.643137 -0.761757 0.436314
O 2.300186 0.994513 0.155374 -0.084502 -0.522516 -0.285456
O 2.331385 -1.267256 0.303113 1.768641 -0.010106 0.462481
H 0.981231 1.895389 -0.218980 1.771955 -0.231986 0.212471
H -2.497739 1.785691 -0.055459 -0.694506 0.150952 -0.127707
H -3.687668 -0.579501 0.179711 -1.303554 0.541000 -0.002564
H -2.493990 -2.463345 0.233257 -0.191457 -1.742152 -0.103317
H 0.001518 -2.418451 -0.087468 1.139696 -1.278438 0.130064
H 3.290618 -1.063200 0.578987 -1.442472 -0.232269 -0.574872
16
Properties=species:S:1:pos:R:3:forces:R:3 energy=-13487.716611183392
C 1.659247 -0.134010 -0.012282 -1.477506 -1.940129 0.234941
C 0.169240 -0.355123 0.010330 1.004052 4.159115 -0.650277
C -0.544710 0.919032 0.008299 -1.747883 0.425810 0.133727
O 0.041904 2.118847 -0.053582 3.057352 -0.980146 -0.881129
C -1.998472 0.929210 0.142560 2.143425 -1.822254 -0.306326
C -2.589312 -0.328415 0.113261 -1.029143 -0.030812 0.474988
C -1.938041 -1.558984 -0.098667 0.680404 1.434894 -0.339973
C -0.534661 -1.521292 -0.154820 -1.402976 -1.639397 0.957342
O 2.317336 0.895028 -0.204833 -0.534136 0.833325 -0.175506
O 2.259947 -1.299004 0.237823 -0.272331 -0.897913 0.131911
H 1.163692 1.874075 -0.307002 -2.519557 0.444485 1.007040
H -2.584973 1.826636 0.212787 -0.007221 0.516543 0.178731
H -3.639370 -0.418456 0.407297 -0.239306 0.250266 -0.478583
H -2.573383 -2.419520 -0.296081 0.400382 -0.363947 0.334527
H -0.069040 -2.471613 0.003884 0.813802 -0.653316 -0.559868
H 3.210034 -1.192010 0.203011 1.130644 0.263473 -0.061545
16
Properties=species:S:1:pos:R:3:forces:R:3 energy=-13487.697515863736
C 1.677163 -0.059878 0.145997 0.020448 -0.978417 -0.816106
C 0.228732 -0.176605 0.094899 -1.438744 -0.353576 -0.448942
C -0.601890 0.909336 -0.098264 -0.792684 2.515565 0.046612
O -0.139214 2.212307 -0.099659 1.612796 -1.231139 -0.764347
C -1.994606 0.803656 -0.285739 1.291064 -1.742248 0.660260
C -2.524236 -0.456617 -0.111686 -2.472136 -0.012436 -0.256142
C -1.757815 -1.602615 0.063889 -2.137298 -0.847422 0.571729
C -0.435986 -1.451877 0.063302 3.380876 -0.670169 -0.008825
O 2.436793 0.898067 -0.044290 -0.842894 -0.593863 0.349236
O 2.035321 -1.372892 0.280260 3.786550 -0.278279 -0.015203
H 0.840115 2.061758 -0.326892 -0.768512 0.818357 0.638853
H -2.530181 1.678500 -0.510156 -0.916160 1.110384 -0.201829
H -3.618847 -0.648011 -0.171292 0.458788 0.526794 -0.006878
H -2.256451 -2.589093 0.283309 0.570835 0.886884 -0.628262
H 0.194615 -2.348868 -0.043855 -0.219613 0.360886 0.503921
H 3.036095 -1.492624 0.126157 -1.533316 0.488678 0.375921
16
Properties=species:S:1:pos:R:3:forces:R:3 energy=-13487.778347344827
C 1.576939 -0.177946 0.192488 2.070163 -0.269284 -0.582261
C 0.165946 -0.232094 0.219707 -1.698151 -2.174684 -1.266333
C -0.589138 0.918615 -0.175721 1.135767 -0.627315 1.426863
O 0.067222 2.046433 -0.212669 -1.934094 2.249260 -0.631642
C -1.975874 0.859729 -0.296772 -1.027475 0.971520 0.948949
C -2.626146 -0.332926 -0.159576 -0.935841 -2.525477 -0.289644
C -1.887506 -1.567931 0.007273 -1.404296 0.461945 -0.376282
C -0.513623 -1.483655 0.178484 -0.291187 -1.241135 0.407109
O 2.178536 0.895877 0.009203 0.463074 0.992234 0.397103
O 2.430545 -1.269752 0.221397 0.162098 1.386445 0.502116
H 1.003355 1.833884 -0.033716 1.596584 -0.129359 0.011103
H -2.577029 1.762311 -0.106396 0.397826 0.094562 -0.842967
H -3.760819 -0.435841 -0.240525 1.420453 0.457404 0.232787
H -2.495836 -2.530910 -0.025483 1.134915 1.058502 0.146392
H 0.006448 -2.459633 0.296780 0.119944 0.798778 0.052256
H 3.290454 -0.696732 0.231754 -1.209781 -1.503395 -0.135549
16
Properties=species:S:1:pos:R:3:forces:R:3 energy=-13487.671525811467
C 1.588321 -0.079756 0.083802 -0.576994 -2.354544 2.429415
C 0.147010 -0.317566 0.113157 1.671428 0.332679 -0.498193
C -0.508098 0.908800 -0.063887 -3.095381 -1.150494 -0.318025
O -0.000918 2.105970 -0.281437 1.242856 0.899364 0.369140
C -1.943054 0.790820 -0.136758 1.437888 -2.036550 -0.524705
C -2.542182 -0.456428 -0.344334 1.172932 1.991868 1.383968
C -1.811673 -1.605406 -0.105526 -2.683966 -1.706477 -1.330149
C -0.512519 -1.594966 0.173622 2.867651 0.683505 -0.389186
O 2.124767 1.014467 0.138716 1.335099 1.587123 -0.779182
O 2.322573 -1.180673 0.385038 -0.468953 -0.705885 -0.607131
H 1.045524 2.054695 -0.155406 -1.425909 -0.518502 -0.066704
H -2.432931 1.687119 -0.176392 -1.699567 2.341943 -0.313401
H -3.573194 -0.604856 -0.516487 -1.324902 0.363245 -0.345048
H -2.406499 -2.491570 -0.387844 0.686489 -0.297600 0.665197
H 0.079684 -2.519596 0.201379 -0.036656 0.350072 0.249218
H 3.218921 -0.863035 0.524441 0.897985 0.220252 0.074785
16
Properties=species:S:1:pos:R:3:forces:R:3 energy=-13488.015127531760
C 1.637422 -0.224073 -0.022377 1.436742 0.867038 0.073482
C 0.175423 -0.259879 0.015993 -0.319176 -0.723466 -0.440273
C -0.548066 0.951180 0.085691 -1.178661 0.660316 -0.157910
O 0.036599 2.175741 -0.028511 0.680951 -0.683204 -0.637760
C -1.982567 0.882180 0.216495 0.599897 0.474743 -0.301856
C -2.624430 -0.348655 0.049017 -1.049455 2.658757 0.673071