16
Properties=species:S:1:pos:R:3:forces:R:3 energy=-13487.556120565256
C 1.646266 -0.136645 0.246434 -0.345479 3.055775 0.319956
C 0.172714 -0.204363 0.156570 0.394438 -2.677174 -0.950877
C -0.645666 0.905966 -0.235358 -0.296400 1.334570 0.670599
O -0.074384 2.131668 -0.353813 -0.713424 -0.147631 -0.017762
C -2.074180 0.865068 -0.425658 1.714577 -2.901976 0.371447
C -2.574516 -0.448755 -0.235776 1.149388 -0.616827 -0.418647
C -1.763620 -1.664814 0.023115 -0.595940 2.695823 0.560479
C -0.354712 -1.545368 0.205830 -4.138897 2.658111 -0.978161
O 2.175871 1.009538 0.451002 -0.166815 -2.374259 -0.374475
O 2.379513 -1.290258 0.130604 -1.075560 0.994985 0.255650
H 0.788681 2.042935 0.095893 1.045199 0.060311 -0.011017
H -2.653728 1.720501 -0.782862 0.179938 -0.133579 0.224195
H -3.609128 -0.626904 -0.479003 -0.632084 -0.073530 0.222696
H -2.383970 -2.547272 0.233040 0.626170 -0.153809 -0.424464
H 0.130446 -2.446219 0.066617 1.935750 -1.635986 0.530813
H 3.247566 -0.967028 0.406847 0.919138 -0.084804 0.019570
16
Properties=species:S:1:pos:R:3:forces:R:3 energy=-13487.677261580924
C 1.720670 -0.154072 0.097996 -2.451030 0.165227 0.170011
C 0.192886 -0.266805 0.068743 -0.353554 -1.402149 1.087858
C -0.632545 0.869267 -0.006310 2.078360 3.821384 -0.829021
O -0.024889 2.140098 -0.079273 -3.348192 -0.240053 -0.208637
C -2.038149 0.913341 -0.205558 0.485074 -1.046786 0.449672
C -2.600969 -0.337277 -0.181691 -1.944205 -2.197406 -0.607666
C -1.893048 -1.618101 -0.064097 0.457456 2.887787 0.099369
C -0.504307 -1.517460 0.179808 0.044306 -0.756544 -1.783623
O 2.256413 0.941894 0.033543 1.061542 -0.060710 -0.037423
O 2.374216 -1.342187 0.190075 0.148356 0.310577 -0.323239
H 0.905898 2.207737 0.084331 1.662029 -1.012951 0.219592
H -2.725173 1.769157 -0.412002 1.234136 -0.248568 0.376287
H -3.725323 -0.360875 -0.372121 1.278655 -0.252834 0.205014
H -2.425247 -2.512170 -0.378612 0.138571 -0.279356 0.570052
H 0.116478 -2.432691 0.096734 -0.325480 0.360354 0.393504
H 3.320589 -1.134704 0.014897 -0.166021 -0.047970 0.218251
16
Properties=species:S:1:pos:R:3:forces:R:3 energy=-13488.231152813549
C 1.603548 -0.187117 0.158757 -1.257974 0.130783 -0.189131
C 0.165834 -0.253122 0.036428 1.018105 -0.958367 0.525057
C -0.528344 0.961566 -0.038679 -2.333159 -1.664058 -1.054470
O 0.004380 2.134496 -0.228510 2.171100 1.434304 0.701272
C -1.948644 0.868988 -0.135064 -0.649300 0.578400 0.649527
C -2.606663 -0.379082 -0.128692 2.024561 1.166160 -0.016511
C -1.813897 -1.540032 -0.120947 -2.837615 -1.884385 -0.448488
C -0.490442 -1.507339 0.012450 1.592324 1.220889 -0.046455
O 2.190811 0.890839 0.220381 1.100954 1.178955 0.086776
O 2.279019 -1.334919 0.183176 1.004794 -0.188109 0.101102
H 1.021454 2.001841 -0.025703 -1.044317 0.030950 -0.362911
H -2.435047 1.886723 -0.110014 -0.005779 -1.201846 -0.176591
H -3.655149 -0.484197 -0.094058 -1.361633 0.167498 -0.193771
H -2.252604 -2.565142 -0.280260 -0.070243 1.045806 0.399278
H 0.044478 -2.431338 0.052040 0.690071 -0.442827 0.024817
H 3.201155 -0.980797 0.250744 -0.041891 -0.614153 0.000499
16
Properties=species:S:1:pos:R:3:forces:R:3 energy=-13487.583416720552
C 1.611228 -0.191047 -0.142660 -1.264935 -2.249186 2.118020
C 0.178355 -0.290414 -0.104942 -1.399950 2.573828 0.030912
C -0.540117 1.045896 0.053140 -1.008582 -3.119360 -0.282142
O 0.119652 2.215036 0.164102 -0.571296 -1.346737 -0.161456
C -1.988083 0.890141 0.130965 1.428381 1.824499 -0.072839
C -2.610349 -0.314378 -0.030841 -0.670376 -2.471282 0.758185
C -1.880031 -1.612440 -0.068888 -2.723745 2.485784 -0.664883
C -0.529930 -1.522585 -0.115458 1.202889 -0.785255 0.545352
O 2.267270 0.833257 -0.292894 0.557348 0.586430 -0.419384
O 2.230769 -1.381626 0.322096 0.974284 2.389191 -1.936547
H 1.050875 1.855508 0.036211 0.574683 0.894709 -0.145709
H -2.632478 1.775017 0.296396 0.502543 -0.214305 -0.134662
H -3.739019 -0.283241 0.080651 1.210159 -0.327994 -0.351769
H -2.452303 -2.552177 -0.196857 0.440469 0.469161 0.320043
H -0.016176 -2.499910 -0.013070 0.363447 0.725448 -0.451248
H 3.107932 -0.983406 0.049595 0.384681 -1.434934 0.848128
16
Properties=species:S:1:pos:R:3:forces:R:3 energy=-13487.662117968472
C 1.675361 -0.174336 0.108143 -2.353314 2.468446 -1.063375
C 0.137539 -0.295635 0.034960 1.444967 1.400993 -0.560300
C -0.606824 0.946543 -0.152450 2.903784 -0.438413 0.461901
O -0.014012 2.169551 -0.183995 -0.168872 -0.733564 0.059838
C -1.943234 0.861510 -0.143942 -3.027022 -2.286877 0.070419
C -2.624017 -0.402552 -0.129364 -0.501448 0.121650 1.259736
C -1.948446 -1.672492 0.057361 0.004342 3.307707 -0.350329
C -0.535474 -1.512090 0.117394 -2.118430 0.569232 0.033964
O 2.310405 0.906398 -0.048072 -1.263872 -0.222219 0.373056
O 2.380694 -1.243428 0.250115 2.533003 -1.284709 0.698133
H 0.952858 1.953163 -0.105170 0.498211 0.297109 -0.086700
H -2.543129 1.711030 0.090211 -0.415266 0.955988 -0.449654
H -3.751343 -0.282371 0.017889 1.346285 -0.574961 -0.412300
H -2.552034 -2.544975 0.332666 0.569023 -0.081535 -0.368913
H -0.004965 -2.353649 0.366386 1.688707 -2.156317 0.461550
H 3.301415 -0.774684 0.297738 -1.140098 -1.342529 -0.127025
16
Properties=species:S:1:pos:R:3:forces:R:3 energy=-13487.765255558195
C 1.597106 -0.170828 0.032794 3.446722 0.832916 -1.975830
C 0.200177 -0.316661 0.123615 -0.941936 2.960862 -0.642189
C -0.503919 0.950633 0.036171 -2.668767 -1.888781 1.291991
O -0.006305 2.173962 0.145339 2.234383 -0.367031 -0.678283
C -1.968738 0.859355 0.095900 2.328541 0.826915 -0.070365
C -2.633302 -0.330391 -0.067847 -1.070143 -0.275432 0.072728
C -1.854556 -1.538044 -0.111737 -2.461105 0.018542 -0.458349
C -0.529732 -1.505319 0.009281 2.493932 -0.775473 0.531270
O 2.278413 0.880198 -0.295478 -2.023832 -1.322662 1.506462
O 2.257095 -1.350252 0.054307 1.215863 -0.430611 0.821258
H 1.029190 2.026011 -0.022906 -1.164400 0.167736 0.255012
H -2.355502 1.844107 0.344526 -0.875274 -0.033944 -0.370397
H -3.774276 -0.268594 -0.126578 1.505372 -0.531217 0.164176
H -2.199361 -2.559459 -0.265253 -0.981596 0.246519 0.026233
H -0.003026 -2.474750 0.041894 0.061297 0.513892 -0.102166
H 3.240392 -1.174259 0.141757 -1.099056 0.057769 -0.371552
16
Properties=species:S:1:pos:R:3:forces:R:3 energy=-13487.929651481329
C 1.625521 -0.188836 0.031860 -1.504285 0.645451 0.232437
C 0.177102 -0.291851 -0.184043 0.438790 1.249220 -0.022183
C -0.532053 0.971335 -0.191544 -0.744661 -0.716043 0.323553
O 0.074589 2.199862 -0.160029 0.455225 -1.602604 -0.644479
C -1.952999 0.853260 -0.059140 -0.047944 -0.124145 0.498546
C -2.651690 -0.360417 0.081317 3.402993 -1.069250 -0.466702
C -1.878066 -1.591526 -0.002311 1.400776 3.157459 -0.205457
C -0.453057 -1.543197 -0.107996 -2.033350 0.881963 0.178308
O 2.189232 0.904228 0.147771 1.000116 0.457952 -0.378659
O 2.250611 -1.325524 0.282203 1.536932 -0.783695 0.431206
H 1.101068 1.950833 -0.250131 -1.369846 0.309225 0.611274
H -2.496750 1.751661 0.132024 -0.378463 0.925642 -0.112159
H -3.684324 -0.495139 0.356454 -0.523190 0.523720 -0.170987
H -2.501888 -2.408011 0.024354 -0.743333 -2.618918 0.210392
H 0.265344 -2.336426 -0.003057 -0.317654 -0.946856 -0.129396
H 3.158094 -1.063585 0.601953 -0.572106 -0.289119 -0.355692
16
Properties=species:S:1:pos:R:3:forces:R:3 energy=-13487.901592784778
C 1.703905 -0.202976 -0.100711 -2.511204 3.028676 2.542436
C 0.191576 -0.312524 0.015478 0.040878 0.755792 -0.685100
C -0.569894 0.940190 0.048290 -0.909530 -1.136746 -1.662115
O 0.012118 2.127816 -0.036216 2.413545 -0.282895 0.437903
C -2.008226 0.917294 -0.131442 1.728453 -0.992974 1.295132
C -2.644926 -0.305169 0.012085 -1.733208 0.757566 0.034461
C -1.911997 -1.484650 0.121372 -0.447029 -0.622128 -0.242000
C -0.553841 -1.538979 0.011105 1.494312 0.938621 0.386768
O 2.327062 0.875320 0.124869 -0.782783 -0.397728 -1.130978
O 2.287291 -1.335609 -0.074345 3.189032 -3.155408 -0.829151
H 1.055608 1.870078 0.010534 -1.317434 0.713682 0.025450
H -2.529198 1.853988 -0.152443 -0.293882 0.521011 -0.180632
H -3.784924 -0.294668 0.052909 1.399593 -0.269780 -0.135709
H -2.354241 -2.452180 0.228692 -0.909625 -0.487240 0.050631
H -0.099081 -2.540406 0.025745 0.280023 0.504149 -0.063788
H 3.302112 -1.234140 -0.108218 -1.641141 0.125402 0.156695
16
Properties=species:S:1:pos:R:3:forces:R:3 energy=-13487.934034930042
C 1.607145 -0.213952 0.052073 -2.007678 0.903112 0.683961
C 0.126320 -0.263286 -0.040912 2.027165 -0.241559 -0.485429
C -0.559360 0.956216 -0.147996 1.133145 2.071856 0.859670
O 0.017708 2.220878 -0.060094 0.888932 -1.698319 0.090744
C -1.919786 0.907040 -0.090303 -2.937971 -0.603049 0.061428
C -2.533563 -0.358219 -0.120072 -2.210414 -0.715806 0.947007
C -1.857570 -1.609587 -0.103552 -1.139094 -0.289761 -0.252436
C -0.488321 -1.516692 -0.038214 1.656232 -1.430853 0.144608
O 2.230602 0.838256 -0.013671 0.806904 1.172682 -0.333797
O 2.243733 -1.318843 0.405017 -1.989611 -1.948883 -0.186382
H 1.016915 2.024146 0.101185 -1.047930 0.210707 -0.562247
H -2.585012 1.795048 0.086898 0.914397 -0.610591 -0.409115
H -3.670651 -0.450644 0.076421 1.623587 0.485648 -0.640856
H -2.445865 -2.591490 -0.125718 0.920711 1.387232 0.113538
H 0.277790 -2.371189 0.060095 -1.603935 0.887194 -0.211242
H 3.125828 -1.027607 0.370191 2.965560 0.420390 0.180548
16
Properties=species:S:1:pos:R:3:forces:R:3 energy=-13488.104518958702
C 1.665137 -0.128700 0.200749 -1.762662 0.321844 0.311201
C 0.154876 -0.351119 0.143533 0.501311 1.689684 -0.451493
C -0.547789 0.920880 -0.123260 0.559032 -1.880195 0.261472
O 0.020780 2.143879 -0.157153 -0.895842 -0.318394 0.096501
C -1.896704 0.774407 -0.419091 -0.456704 0.023468 0.203297
C -2.606322 -0.411571 -0.226016 -0.584104 0.656729 -0.331645
C -1.973399 -1.620625 0.046522 0.070112 0.282120 -0.536908
C -0.588370 -1.575085 0.132774 1.863062 -0.505768 0.622188
O 2.161472 1.004354 0.392702 0.004518 -0.996756 0.021215
O 2.442927 -1.194635 -0.015290 1.100477 0.280499 0.037922
H 0.895817 2.029488 0.293957 0.569691 -0.087836 -0.290980
H -2.367584 1.646995 -0.811482 -0.739608 0.775118 -0.004729
H -3.707941 -0.393128 -0.312304 0.434782 0.044704 -0.210144
H -2.603671 -2.511876 -0.045773 0.554051 -0.170126 0.472826
H 0.024895 -2.499282 0.277365 -0.562038 0.553252 -0.163364
H 3.359364 -0.784445 0.019398 -0.656076 -0.668344 -0.037359
16
Properties=species:S:1:pos:R:3:forces:R:3 energy=-13486.974182923177
C 1.634069 -0.125185 0.081046 0.303734 -3.265013 0.063495
C 0.177211 -0.304765 -0.138653 0.129174 3.225148 0.782486
C -0.584393 1.001325 -0.101459 0.661176 -1.513294 0.415976
O 0.004444 2.261113 -0.091180 0.444296 -2.119988 -0.160533
C -1.967242 0.858788 0.054524 -0.217622 -2.006638 -1.340158
C -2.674403 -0.438846 -0.049762 -0.409779 3.150635 -0.033151
C -1.895497 -1.637008 -0.187949 1.119757 3.303655 0.924081
C -0.475307 -1.533767 -0.092808 -1.725616 1.993339 -0.520481
O 2.351081 0.836037 0.002871 0.119285 3.174165 -0.336424
O 2.255017 -1.304087 0.399212 -0.842070 -1.408594 0.198558
H 1.004251 2.050842 -0.107283 -0.765092 0.352253 -0.015900
H -2.559229 1.742183 -0.077851 -0.453548 0.632025 0.444513
H -3.862343 -0.036836 -0.037068 2.818793 -2.556552 -0.119423
H -2.140187 -2.630794 -0.135631 -1.857766 -2.313724 -0.082195
H 0.097056 -2.404922 0.025550 0.831050 -1.289763 -0.021219
H 3.210141 -1.214935 0.581906 -0.155772 0.642346 -0.199626
16
Properties=species:S:1:pos:R:3:forces:R:3 energy=-13487.653988569538
C 1.616073 -0.166417 0.233972 2.090923 2.381883 -2.130339
C 0.246134 -0.309231 -0.096907 -2.598710 0.398908 0.714875
C -0.580638 0.897254 -0.058233 4.032671 0.755564 -1.590695
O -0.047312 2.157029 -0.208740 -1.375194 -0.712062 0.492081
C -1.901623 0.858413 -0.137963 -4.635603 0.545169 0.864815
C -2.601726 -0.329433 -0.006062 1.064749 -1.289065 0.209900
C -1.838921 -1.553116 -0.048080 -0.959167 0.351315 -0.528826
C -0.454874 -1.547604 -0.214239 -0.542244 1.138064 1.287609
O 2.201590 0.971531 0.215856 -0.541532 -2.136177 0.674441
O 2.254388 -1.340733 0.235792 2.955127 -0.817219 0.082396
H 0.896370 2.002260 -0.114752 1.891848 0.049919 0.209838
H -2.504925 1.804615 -0.059024 0.818257 -0.668406 -0.299618
H -3.661869 -0.243558 0.243330 -0.022938 -0.528475 -0.332853
H -2.292918 -2.549427 0.019959 -0.293892 0.346442 -0.011062
H 0.013415 -2.514728 -0.143049 0.649891 -0.177410 -0.209310
H 3.286881 -1.259937 0.100883 -2.534185 0.361549 0.566749
16
Properties=species:S:1:pos:R:3:forces:R:3 energy=-13487.630185195569
C 1.604670 -0.174832 -0.039794 2.836306 -2.564463 1.110751
C 0.194282 -0.275489 0.092415 -1.753250 -1.382060 -1.374522
C -0.587612 0.922986 -0.011276 2.193059 -0.311232 1.035354
O 0.057443 2.114791 -0.011853 -0.110047 1.032776 -0.308016
C -1.993880 0.873122 0.029523 1.808846 2.252253 0.198787
C -2.689595 -0.280693 0.033765 -0.782382 -1.062067 -1.663068
C -1.951716 -1.477105 -0.037406 0.791822 0.282475 0.646693
C -0.529728 -1.510254 0.004419 -2.075971 0.339231 -0.044440
O 2.267966 0.842354 -0.046566 0.449933 2.098436 -0.443907
O 2.422881 -1.377202 0.031163 -2.755170 0.502577 -0.244159
H 1.096479 2.120880 -0.112120 -1.849058 -1.363470 0.296831
H -2.371357 1.871415 0.089111 -0.992738 0.613385 -0.232886
H -3.755285 -0.250908 -0.319520 0.617573 -0.199799 1.100564
H -2.547980 -2.368377 -0.018741 0.060408 -0.854832 -0.304728
H -0.172849 -2.527938 -0.140898 0.954264 0.254239 0.281921
H 3.316264 -1.021326 0.081562 0.606405 0.362551 -0.055175
16
Properties=species:S:1:pos:R:3:forces:R:3 energy=-13487.840528061559
C 1.598168 -0.110615 0.133024 1.976289 0.639997 -1.467903
C 0.161103 -0.182481 -0.013127 0.715659 -0.817410 0.895849
C -0.608673 0.963984 -0.112703 -1.302793 1.958475 -0.537344
O 0.000550 2.191208 -0.228612 -1.358303 -0.399863 -0.015738
C -2.057768 0.816162 -0.165910 1.404831 -1.165578 0.317707
C -2.526336 -0.505401 -0.125839 -3.013448 1.764914 -0.017460
C -1.739737 -1.575090 0.152993 -1.563023 -2.222161 -0.873339
C -0.426595 -1.443214 0.146407 3.678000 -1.123005 0.633863
O 2.316665 0.909721 -0.011056 -0.922471 -0.973987 0.447293
O 2.155671 -1.361306 0.233598 -2.524298 -0.045848 0.415748
H 0.972995 2.055697 -0.343435 0.229762 -0.348225 0.349732
H -2.832290 1.564991 -0.101672 0.351827 0.819429 -0.423559
H -3.644813 -0.697388 -0.266322 1.329435 0.459857 0.301450
H -2.127896 -2.581732 0.123157 -0.492778 -0.323226 0.300246
H 0.268385 -2.331463 0.307199 -1.031267 1.162931 -0.264722
H 3.085247 -1.357949 0.201015 2.522579 0.613700 -0.061824
16
Properties=species:S:1:pos:R:3:forces:R:3 energy=-13487.796572268127
C 1.628269 -0.126012 0.150798 0.710115 -0.648928 -1.199556
C 0.195913 -0.195854 0.150631 -2.972192 -1.675190 0.908332
C -0.623506 0.975444 -0.028131 3.020760 -0.671642 -0.124582
O -0.037530 2.164258 0.030740 1.361306 1.453682 -0.858031
C -1.919303 0.840372 -0.389569 -3.993464 -1.106358 -0.746123
C -2.556014 -0.429952 -0.239268 2.302850 1.186732 -0.112994
C -1.857954 -1.591536 0.065410 -0.626395 0.149874 0.679617
C -0.508648 -1.476584 0.272080 2.668608 0.290911 -0.427110
O 2.327848 0.852959 -0.040958 0.233789 2.316724 0.106505
O 2.215469 -1.322207 0.087495 1.176717 -2.223660 0.104202
H 0.969607 2.067035 -0.182719 -1.224905 -0.237947 0.781946
H -2.590139 1.602006 -0.887733 1.145483 -0.185772 1.017040
H -3.572811 -0.516956 -0.392092 -2.349651 0.049099 -0.567013
H -2.435029 -2.512872 0.220077 0.436272 0.031783 -0.129968
H 0.135508 -2.378196 0.411330 -0.532037 0.649306 0.037562
H 3.185652 -1.288333 -0.179945 -1.357257 0.621387 0.530175
16
Properties=species:S:1:pos:R:3:forces:R:3 energy=-13487.421752632381
C 1.616452 -0.122416 0.129308 3.495763 -1.879372 -0.204536
C 0.200641 -0.218214 0.038504 -1.833567 -0.479610 -0.327857
C -0.591653 0.940516 -0.116838 -0.148640 1.510051 -0.108031
O -0.092643 2.256980 -0.107265 -0.237602 -1.342543 -0.517957
C -2.017477 0.847773 -0.212729 -1.235566 1.223370 0.867539
C -2.661937 -0.380855 -0.050560 -0.854994 -1.697241 0.621194
C -1.826349 -1.557425 -0.026682 -0.018851 0.870442 -0.318015
C -0.462662 -1.522194 -0.007027 1.959757 2.803384 0.263018
O 2.395021 0.812241 -0.045552 -1.042177 0.881389 0.107950
O 2.275541 -1.401099 0.347633 0.226865 1.330985 0.358010
H 0.854213 2.269031 -0.410050 -0.343632 -0.450464 0.523960
H -2.640635 1.822311 -0.238765 1.180902 -1.466671 -0.019425
H -3.833750 -0.628197 0.187336 2.774026 1.234659 -1.031897
H -2.194074 -2.524306 -0.174900 -1.348202 -1.522648 0.189737
H 0.319089 -2.283265 0.001492 -0.850597 -0.759114 -0.023867
H 3.255340 -1.152521 0.474638 -1.723484 -0.256616 -0.379823
16
Properties=species:S:1:pos:R:3:forces:R:3 energy=-13488.087270249474
C 1.657360 -0.157486 0.048812 -0.382790 -0.812776 0.204366
C 0.199530 -0.326426 -0.047353 -0.685689 1.466466 -0.973919
C -0.569694 0.908622 -0.042865 0.735943 -0.557836 -0.134160
O 0.026474 2.110605 -0.086306 -0.758766 0.658175 -0.013798
C -1.982292 0.874142 0.006957 0.354795 0.602465 0.859525
C -2.631761 -0.328768 0.174805 -1.702613 0.325917 0.478823
C -1.905662 -1.507556 -0.052443 -0.904296 -0.550541 -0.490168
C -0.550887 -1.506151 -0.317870 0.833673 -0.208077 0.647336
O 2.272107 0.923962 0.108642 -0.165255 -0.632930 -0.317328
O 2.330049 -1.356724 0.170812 0.710398 1.332847 -0.390927
H 1.007911 2.042478 -0.209209 0.060603 -0.621071 0.334244
H -2.517078 1.815726 0.127693 0.076949 0.101384 -0.149729
H -3.767991 -0.291345 0.483152 2.159779 -0.404963 -0.818826
H -2.483526 -2.420801 -0.153068 0.086319 -0.327917 0.008142
H -0.065924 -2.424329 -0.697520 -0.039005 0.358439 0.541687
H 3.263505 -1.005890 0.123695 -0.380044 -0.729583 0.214733
16
Properties=species:S:1:pos:R:3:forces:R:3 energy=-13487.856245023837
C 1.638060 -0.057598 0.201255 1.059282 -3.104078 0.790730
C 0.231188 -0.242596 0.017561 -2.307109 2.202926 -1.186397
C -0.580157 0.966642 -0.159086 -2.097767 -0.923706 -0.920406
O -0.108713 2.218077 -0.378944 0.312712 -0.757029 0.792000
C -2.009948 0.851893 -0.258817 1.552988 -3.316079 0.874642
C -2.563484 -0.479410 -0.148217 -1.400592 1.885174 0.600536
C -1.812501 -1.656518 -0.039201 1.021462 1.839901 -0.796691
C -0.432137 -1.491515 -0.071373 1.224043 -0.969962 1.304619
O 2.287025 0.904287 0.590127 -0.431580 0.488281 -0.569568
O 2.248392 -1.360029 0.105443 0.397955 1.909456 0.333061
H 0.784584 2.113590 -0.013008 1.206769 0.796153 0.031260
H -2.616571 1.723030 -0.177560 -0.508402 0.690661 -0.293277
H -3.678063 -0.508841 0.017529 0.922933 -0.152549 -0.457833
H -2.226581 -2.633545 0.006789 -0.556798 -0.771336 0.088161
H 0.220415 -2.380275 0.097854 -0.468406 0.558571 -0.344308
H 3.126563 -1.159011 0.499066 0.072510 -0.376385 -0.246530
16
Properties=species:S:1:pos:R:3:forces:R:3 energy=-13487.705966745694
C 1.626483 -0.213093 0.038192 1.026813 2.287020 -0.370972
C 0.210843 -0.243023 -0.038609 -2.688614 -2.828556 1.372164
C -0.554008 0.936835 0.105290 -0.820555 -0.017612 -2.219467
O 0.030597 2.124704 0.147997 0.288094 0.739446 0.583261
C -1.973987 0.859432 -0.183872 1.628795 0.219430 1.167719
C -2.589158 -0.359238 -0.188677 -1.051610 -0.354889 -0.507784
C -1.892255 -1.579323 -0.158007 0.337327 0.744798 0.952927
C -0.536127 -1.520942 -0.028414 2.792706 0.984866 -1.284208
O 2.180136 0.877975 -0.348869 0.432697 -2.072799 1.039921
O 2.333254 -1.257251 0.572276 2.343582 1.912239 -1.762727
H 1.030367 1.945015 0.122706 -0.488234 0.073912 -0.375600
H -2.549873 1.761742 -0.311305 -0.057815 0.444225 0.105969
H -3.672744 -0.355444 -0.331469 -0.027694 -0.160956 0.008947
H -2.366606 -2.520897 -0.029729 -0.713918 -0.845484 -0.363780
H 0.132389 -2.381182 -0.253107 -0.643730 0.102231 0.683816
H 3.310885 -0.903782 0.319021 -2.357844 -1.227869 0.969815
16
Properties=species:S:1:pos:R:3:forces:R:3 energy=-13488.168037611795
C 1.617103 -0.155658 0.144621 0.287590 1.724724 -0.523203
C 0.166435 -0.165268 0.009503 1.526268 -3.570217 0.704828
C -0.584042 0.964971 -0.085730 -0.784646 0.540282 0.082654
O -0.026112 2.184817 -0.111733 -0.242925 0.307194 -0.167751
C -1.976608 0.815063 -0.178213 0.259745 1.761451 -0.695460
C -2.581980 -0.418598 -0.149150 -1.718409 -0.328797 -0.695681
C -1.808068 -1.587433 -0.049953 0.999065 1.595651 0.333511
C -0.427286 -1.472741 0.057867 -1.498664 1.081982 -0.385940
O 2.321859 0.879073 0.183351 -0.562269 -0.459206 0.096106
O 2.162310 -1.369807 0.145569 3.214872 -0.277748 0.777243
H 0.948718 2.019715 -0.068825 0.416593 0.132373 0.138026
H -2.395132 1.793333 -0.474694 -0.800877 -0.562710 0.451679
H -3.705231 -0.513627 -0.328719 1.382542 0.227079 0.346933
H -2.244457 -2.535274 -0.043429 -0.873348 -1.568811 0.013897
H 0.108324 -2.397457 0.131922 0.777182 -0.163294 0.076733
H 3.180572 -1.194115 0.328311 -2.382720 -0.439953 -0.553575
16
Properties=species:S:1:pos:R:3:forces:R:3 energy=-13488.081672287368
C 1.632028 -0.101610 0.203511 -2.270602 -1.436149 -0.740572
C 0.155504 -0.167761 0.129805 0.155971 -2.229725 -0.097371
C -0.669232 0.963286 -0.059585 2.862710 0.368532 0.350648
O -0.030244 2.141843 -0.102295 1.113717 0.791936 0.636220
C -2.004484 0.816209 -0.269262 -1.952752 0.228050 -0.339624
C -2.547110 -0.486862 -0.254578 1.068087 2.412281 0.036087
C -1.770569 -1.615217 -0.077146 -1.113607 -1.103061 -0.609786
C -0.407481 -1.477265 0.053172 0.417006 0.798726 0.085420
O 2.279410 0.929304 0.180575 0.956314 1.097833 0.410868
O 2.221011 -1.351313 0.173512 1.757270 1.896236 0.634250
H 0.976615 1.966878 0.163937 -1.659047 0.219885 -0.769847
H -2.642617 1.718751 -0.497471 0.643196 -0.950428 0.309460
H -3.568333 -0.431999 -0.479798 -1.766087 -0.886522 -0.181391
H -2.319662 -2.565659 -0.227543 0.730741 0.131914 0.304777
H 0.286890 -2.308742 -0.001022 -0.175553 -0.254942 0.283180
H 3.168870 -1.024895 0.311577 -0.767365 -1.084566 -0.312318
16
Properties=species:S:1:pos:R:3:forces:R:3 energy=-13487.662547458200
C 1.656208 -0.149350 0.233171 -1.241948 2.192953 -1.133841
C 0.190897 -0.300416 0.094953 0.489456 0.912156 0.166947
C -0.555478 0.937028 -0.042947 -2.612431 -1.621943 -1.717705
O 0.003316 2.119000 -0.270920 1.360923 -0.376427 0.866745
C -2.019775 0.845956 -0.344446 3.803626 -2.284361 1.794168
C -2.607076 -0.406895 -0.149111 0.369330 1.094260 -0.312248
C -1.855570 -1.553811 0.127503 0.495248 0.006489 -0.877232
C -0.481090 -1.544775 0.023359 0.237011 -0.887394 1.598862
O 2.204865 0.982316 0.289386 -0.065032 -0.735905 0.341840
O 2.303225 -1.261709 0.065026 -0.026338 -2.544444 0.065564
H 1.006524 1.879767 -0.070630 -0.477208 0.744127 -0.133353
H -2.310196 1.759395 -0.744809 -1.657399 1.482082 -0.600771
H -3.635097 -0.596754 -0.337634 -1.209662 0.263010 -0.092747
H -2.321161 -2.517003 0.189005 -0.588332 -0.465162 0.065051
H -0.020842 -2.577379 0.117842 0.164909 1.509557 -0.172306
H 3.249482 -1.267021 0.206807 0.957849 0.711003 0.141025
16
Properties=species:S:1:pos:R:3:forces:R:3 energy=-13487.717929858518
C 1.656006 -0.174813 0.053918 -0.911470 0.220967 0.627779
C 0.146360 -0.344762 0.230567 3.175527 2.378316 -0.764119
C -0.505952 0.901901 -0.094286 -2.939654 -0.070847 0.232079
O -0.078243 2.186217 -0.047581 1.408534 -1.133353 0.108209
C -1.893345 0.805610 -0.419908 0.220731 0.756422 -0.541075
C -2.543993 -0.405662 -0.277700 -1.223585 1.895814 -0.850792
C -1.890488 -1.511585 0.203112 -3.267706 -1.285180 0.143337
C -0.568733 -1.505637 0.446090 1.086334 -2.012782 -0.433870
O 2.156410 0.961925 -0.093888 0.184405 -1.139184 0.319542
O 2.408099 -1.311008 0.057131 1.858294 1.122454 0.312581
H 0.905645 2.057999 0.138362 -0.117736 0.381263 -0.371200
H -2.416698 1.705000 -0.864364 0.613238 -0.871779 0.692236
H -3.606028 -0.409583 -0.601977 0.492847 -0.370222 0.358544
H -2.596122 -2.362343 0.323824 1.051400 -0.091573 0.112249
H -0.173644 -2.539203 0.540766 0.661855 0.914910 0.378864
H 3.399773 -0.984653 0.112972 -2.293016 -0.695225 -0.324363
16
Properties=species:S:1:pos:R:3:forces:R:3 energy=-13487.672090739065
C 1.629384 -0.162774 0.094091 0.573934 1.925279 -1.800272
C 0.171912 -0.147881 -0.200331 1.667892 -3.236908 1.933894
C -0.580328 0.982917 -0.083627 -2.759130 1.566228 -0.492888
O -0.059700 2.217010 -0.092997 1.403807 0.373081 -1.044690
C -2.019574 0.865849 -0.064917 1.002021 -1.227368 0.315467
C -2.534456 -0.436453 0.047676 -0.043865 0.833745 -1.281275
C -1.790583 -1.638418 -0.019787 1.615293 3.520412 0.632480
C -0.405055 -1.446307 -0.042464 -0.322131 -1.998682 -1.212049
O 2.365619 0.856070 -0.026596 -0.984083 -1.593964 0.550081
O 2.122414 -1.409208 0.342682 1.760071 0.894930 0.722364
H 0.857288 2.110350 -0.519018 -0.733651 0.310908 1.113408
H -2.711879 1.709002 -0.195178 0.506428 -0.046092 0.250908
H -3.591719 -0.500796 -0.118643 -0.893378 -0.183059 0.391435
H -2.352216 -2.500291 0.067453 -0.595717 -2.282291 0.026504
H 0.284098 -2.360909 -0.126309 -1.031046 1.432710 0.299615
H 3.095588 -1.241339 0.560700 -1.166445 -0.288929 -0.404982
16
Properties=species:S:1:pos:R:3:forces:R:3 energy=-13487.981361830212
C 1.604148 -0.159506 0.095033 -0.536757 -1.327234 -0.412562
C 0.181853 -0.227410 0.316479 1.085644 0.204175 -0.345143
C -0.539594 0.923573 0.042131 -1.806646 1.641461 0.880171
O 0.016796 2.154231 0.139757 0.517493 -0.132267 -0.478424
C -1.951513 0.870577 -0.215206 2.650586 -2.212409 0.238439
C -2.524718 -0.388848 -0.362268 -1.192560 -0.112050 -0.389959
C -1.800781 -1.552661 0.002764 -0.141312 -0.264283 -0.383833
C -0.444397 -1.433746 0.345993 -1.828737 -3.652662 0.048772
O 2.242035 0.875226 0.081873 1.391870 0.945737 0.088089
O 2.105293 -1.371548 -0.327730 0.397769 0.628881 0.569388
H 1.023049 2.007710 0.163686 -0.653839 0.018292 0.121137
H -2.364126 1.804090 -0.362127 -1.471388 1.861233 -0.565220
H -3.561882 -0.472911 -0.826474 1.119611 0.039280 0.856180
H -2.256673 -2.569824 -0.116401 0.320847 0.922448 0.246089
H 0.060035 -2.431100 0.573977 -0.186715 1.555285 -0.309616
H 3.060096 -1.206565 -0.428248 0.334136 -0.115886 -0.163505
16
Properties=species:S:1:pos:R:3:forces:R:3 energy=-13487.971889774155
C 1.619523 -0.148429 0.034472 1.956044 -2.177511 -0.133119
C 0.170859 -0.300051 0.125580 0.830789 -1.971854 -0.760656
C -0.502203 0.891875 -0.062201 -2.093037 1.095339 1.229914
O -0.010519 2.138509 -0.081305 2.403744 0.095310 0.023838
C -1.911377 0.905111 0.007646 -0.413127 -1.504065 -0.971206
C -2.655467 -0.269000 0.005350 2.447255 0.288098 0.429221
C -1.938434 -1.515623 0.036737 -0.804410 0.725667 0.023221
C -0.555572 -1.590317 0.101545 0.637171 0.642676 0.508258
O 2.303371 0.863020 0.202338 -0.687698 0.661154 -0.117518
O 2.323923 -1.336123 -0.298614 -1.975077 0.441307 0.322123
H 1.009773 2.063841 0.073862 -1.222632 -0.050253 -0.268408
H -2.395017 1.837275 -0.132815 -0.477619 1.105409 0.197477
H -3.711575 -0.157842 0.127417 -0.828682 -0.449015 -0.224501
H -2.599729 -2.360476 0.009606 0.115785 -0.950921 0.132855
H -0.034283 -2.598611 0.274449 -0.556479 1.654120 -0.490215
H 3.227971 -1.075743 -0.501862 0.667973 0.394539 0.098717
16
Properties=species:S:1:pos:R:3:forces:R:3 energy=-13487.735105293455
C 1.679158 -0.162771 0.077435 -1.373434 -0.525255 -0.732645
C 0.180102 -0.295380 -0.192079 0.908420 -1.391649 2.254691
C -0.544641 0.914395 -0.079399 0.696246 0.822083 -0.518983
O 0.050572 2.159395 -0.116154 -0.426610 -0.754089 -0.347176
C -1.939691 0.857048 -0.028278 -1.951291 0.282377 -1.256636
C -2.678595 -0.337992 -0.162877 0.412230 -0.220746 -0.129993
C -1.945632 -1.545347 -0.053068 -0.515323 -1.186129 0.638601
C -0.545325 -1.543913 0.072499 0.820230 0.028892 -1.737545
O 2.225793 0.940124 0.124771 0.707621 -0.346744 0.057719
O 2.359165 -1.342940 0.266943 1.346714 1.206940 1.539870
H 1.042952 2.034529 -0.291415 -0.840219 -0.308158 0.622216
H -2.492881 1.789421 -0.198791 0.253833 0.049313 0.372832
H -3.791348 -0.419456 -0.441690 1.594752 0.558193 0.756180
H -2.551858 -2.503669 0.036590 0.968431 0.949545 -0.252094
H 0.048656 -2.525905 0.068470 -0.871761 1.436828 0.262839
H 3.205514 -1.070736 0.811770 -1.729839 -0.601402 -1.529876
16
Properties=species:S:1:pos:R:3:forces:R:3 energy=-13487.613146589490
C 1.599680 -0.157259 0.164222 1.103401 5.260383 0.060688
C 0.182585 -0.170437 0.005985 0.388369 -2.568935 -0.355148
C -0.589689 0.965241 -0.166225 -2.707002 0.930587 -0.170070
O -0.065247 2.224306 -0.134641 -1.886162 -0.662963 -0.204609
C -2.037588 0.758218 -0.351091 1.864050 -0.659456 0.042727
C -2.573646 -0.572316 -0.312278 0.970280 2.949598 0.745731
C -1.772405 -1.625601 0.085665 0.351644 -3.373685 -0.275491
C -0.370666 -1.484218 0.021335 -2.728920 1.395751 0.930661
O 2.295092 0.945628 0.129780 -1.617554 -2.262693 -0.115595
O 2.215846 -1.271514 0.429230 1.618326 -1.244641 -0.443757
H 0.869214 2.091606 0.057374 1.688561 -0.110887 0.088030
H -2.675005 1.639658 -0.479801 0.098735 -0.221381 -0.168573
H -3.622268 -0.590760 -0.476490 -1.095730 -0.575516 0.044333
H -2.195351 -2.720069 0.366155 0.731452 2.531015 -0.976471
H 0.190810 -2.368318 0.152040 1.050499 -0.687014 0.210189
H 3.131798 -0.944940 0.227362 0.170051 -0.700162 0.587356
16
Properties=species:S:1:pos:R:3:forces:R:3 energy=-13487.625675367908
C 1.609657 -0.181893 0.095866 0.616065 2.313716 -1.302484
C 0.166889 -0.231098 -0.015204 1.412527 -1.274027 1.173379
C -0.555151 0.960201 -0.035398 0.516897 0.243789 -0.598904
O -0.006197 2.190614 0.099483 -3.784891 0.352706 -0.424441
C -1.892684 0.802726 -0.309502 -1.119456 1.583053 0.347589
C -2.574928 -0.394472 -0.099436 -0.677238 -0.496274 -0.634423
C -1.889744 -1.620437 -0.048773 2.343692 1.004350 1.083816
C -0.421830 -1.476062 0.008521 -2.227062 -3.763279 -0.726036
O 2.182772 0.887992 -0.231140 0.568930 -1.350928 0.874313
O 2.254422 -1.305066 0.433877 0.434280 -0.299208 -0.006300
H 0.913506 2.148918 0.226358 2.947100 -0.642577 -0.006010
H -2.397292 1.734526 -0.597010 -0.373263 -0.212885 0.447364
H -3.682637 -0.323329 -0.025203 0.590481 -0.288776 -0.329521
H -2.385932 -2.574720 0.174955 0.192761 0.251719 -0.318336
H 0.227665 -2.485056 -0.037598 -1.332484 2.477602 0.300586
H 3.210215 -1.142752 0.274955 -0.108340 0.101020 0.119409
16
Properties=species:S:1:pos:R:3:forces:R:3 energy=-13487.187637357463
C 1.656646 -0.174526 0.078680 0.830911 0.543846 0.096038
C 0.189774 -0.296994 -0.303315 -0.324122 -1.553921 1.935234
C -0.574085 0.934728 -0.166970 1.309821 -1.546821 -0.962128
O -0.136372 2.175063 -0.380608 -3.608691 0.566952 0.888901
C -1.897516 0.823306 0.081274 -3.257532 0.775374 0.944052
C -2.592058 -0.361469 0.106780 0.649527 -0.774939 -0.362670