15
Properties=species:S:1:pos:R:3:forces:R:3 energy=-7381.480409567960
C 2.490819 -0.132498 0.225656 -0.502001 0.891706 -1.683985
C 0.955361 -0.092306 0.056056 1.111714 -0.912165 4.136284
C 0.098395 -0.293984 1.222502 -1.598260 0.613312 -4.031695
C -1.297708 -0.177894 1.069769 0.998641 1.627788 -3.327208
C -1.896387 0.241098 -0.185267 2.695365 -0.992217 0.518772
C -1.017046 0.214639 -1.284765 -2.020098 1.415322 -0.552326
C 0.370238 0.200233 -1.106352 -1.351168 -0.665146 -3.505181
H 2.752577 0.929113 0.535655 0.349618 -1.131653 -0.246729
H 2.827396 -0.874082 0.956488 -0.015285 0.107055 0.124710
H 2.961394 -0.387038 -0.808570 -0.499510 0.544299 1.643451
H 0.450796 -0.419566 2.169873 1.394820 -0.654703 2.626917
H -1.998281 -0.141840 1.811501 -1.368584 -0.283920 2.813470
H -2.863276 0.716832 -0.261485 -0.622488 -0.575320 0.045749
H -1.492364 0.399449 -2.303114 0.904512 -0.070617 1.022272
H 0.892905 0.263437 -2.071029 0.522725 0.086257 0.415500
15
Properties=species:S:1:pos:R:3:forces:R:3 energy=-7381.603572733267
C 2.464096 -0.268845 0.180539 -0.536313 -1.701674 -0.533823
C 0.968791 -0.026845 0.070661 -1.591191 -2.714061 -1.001447
C 0.209923 -1.147714 -0.499994 -0.283261 3.529579 0.936664
C -1.189982 -0.969719 -0.595990 2.190517 -1.825326 -0.631178
C -1.809290 0.131282 -0.134133 -3.811034 3.107755 1.319101
C -1.160688 1.246530 0.479952 0.034311 -1.312228 -0.555416
C 0.192565 1.077890 0.501929 2.920963 0.153074 0.144286
H 2.686799 -1.228430 -0.466457 -0.046167 1.807147 1.178681
H 3.069997 0.556459 -0.129629 0.533550 0.758357 -0.572743
H 2.777006 -0.472852 1.218120 -0.164101 -0.167718 -0.018721
H 0.652346 -1.935923 -1.066668 0.632659 -0.807951 0.018081
H -1.658252 -1.797218 -1.105714 -0.906075 -0.036472 -0.128036
H -2.932281 0.263271 -0.222638 1.030141 -0.546565 -0.071226
H -1.525312 2.197791 0.943260 -0.464559 -1.017736 -0.744103
H 0.797543 1.910714 0.795106 0.460560 0.773817 0.659880
15
Properties=species:S:1:pos:R:3:forces:R:3 energy=-7381.349962403952
C 2.431188 -0.200595 0.060792 1.747776 1.915233 -1.376295
C 0.989600 -0.159242 0.225773 -3.044549 -0.007530 -0.517756
C 0.186981 -1.136652 -0.421253 1.229471 -2.033102 0.372567
C -1.166843 -0.982748 -0.570945 -0.251971 2.657855 0.649605
C -1.870222 0.237730 -0.219508 -0.078297 -2.091259 -1.191489
C -1.174277 1.239388 0.346088 4.377029 -1.571740 1.162850
C 0.284965 0.989469 0.653108 -1.674902 0.145547 -0.828110
H 2.645202 -0.128596 -1.100786 -0.180665 0.280892 1.988887
H 2.751419 0.728423 0.601571 0.654281 -0.490195 -0.713913
H 3.083648 -1.010209 0.369803 -0.346703 -0.693009 0.541214
H 0.731960 -2.132158 -0.709447 -1.115050 1.715822 0.107734
H -1.732619 -1.556080 -1.207416 -1.189402 -2.264459 -1.240182
H -2.931191 0.331297 -0.529202 0.528489 0.004914 0.257462
H -1.617316 2.148821 0.566101 -0.694313 1.985025 0.666517
H 0.865505 1.770422 1.127651 0.038804 0.446007 0.120911
15
Properties=species:S:1:pos:R:3:forces:R:3 energy=-7381.794980093888
C 2.448437 -0.142274 0.228603 1.358566 0.740352 0.476701
C 0.912902 -0.055872 0.058564 1.287363 -0.834943 0.133145
C 0.220716 -0.833543 -0.932353 -0.125702 0.770334 0.399762
C -1.223202 -0.714274 -1.016284 3.923858 -0.112441 -0.182433
C -1.802821 0.201482 -0.175237 -1.866346 -1.657918 -1.637131
C -1.115168 0.816559 0.796920 -1.761391 3.340229 3.115577
C 0.207697 0.729344 1.008114 2.027067 -1.353220 -1.885238
H 3.103056 0.601447 -0.387571 -1.320528 -1.029993 0.516456
H 2.814299 0.084731 1.302371 -0.893343 -0.249937 -1.228237
H 2.855461 -1.157081 0.032425 -0.266916 0.301790 -0.185993
H 0.838055 -1.432144 -1.664964 -0.789163 0.446948 0.775054
H -1.682827 -1.256004 -1.810828 -0.849484 -0.324215 -0.444464
H -2.857740 0.305861 -0.319211 -0.851673 0.491108 0.298246
H -1.633151 1.556220 1.472517 0.011197 -0.763359 -0.601887
H 0.750680 1.281213 1.753391 0.116495 0.235264 0.450441
15
Properties=species:S:1:pos:R:3:forces:R:3 energy=-7381.505883454805
C 2.420351 -0.153287 0.352837 1.017428 -2.106661 -0.499711
C 0.925245 -0.118360 -0.072065 2.045769 2.419155 2.511985
C 0.154241 -1.238040 0.008422 -0.041209 -0.204463 -1.659534
C -1.213182 -1.082619 -0.053241 -0.937725 -1.526056 0.815896
C -1.840724 0.130553 -0.020853 0.794354 0.781483 -0.382574
C -1.063335 1.303593 -0.197081 -1.591086 0.321506 0.305087
C 0.294338 1.186942 -0.053105 1.749959 0.332737 -2.336798
H 3.022045 0.586075 -0.185375 -0.010026 0.326647 0.156793
H 2.591504 -0.068224 1.461958 -0.529306 0.411492 -0.733731
H 3.005367 -1.166645 0.155442 -1.428764 1.489057 -0.044686
H 0.602975 -2.171438 -0.273131 0.309462 -0.858812 0.588014
H -1.845171 -1.977420 0.000872 0.066947 0.029175 -0.084469
H -2.884844 0.055789 0.117687 -1.410410 0.655960 -0.215882
H -1.527361 2.293097 -0.461173 0.306753 -0.855237 0.545176
H 0.885240 2.106996 -0.397490 -0.342147 -1.215983 1.034435
15
Properties=species:S:1:pos:R:3:forces:R:3 energy=-7381.522859048467
C 2.446283 -0.252187 0.098681 2.235633 0.498491 1.285808
C 0.995378 0.055132 0.073983 -1.775698 -2.989240 -0.812047
C 0.261125 -0.563794 -1.022651 -0.331147 1.778840 2.545627
C -1.107296 -0.476357 -1.125236 -1.447114 0.974664 -0.639490
C -1.861213 0.221827 -0.154387 -1.709289 0.334631 -0.026226
C -1.203269 0.614978 0.987645 -1.068965 0.656851 1.155777
C 0.165824 0.440072 1.130569 -0.121648 0.367015 -2.270438
H 3.027526 0.157122 1.012096 -0.938765 -0.318728 -1.201450
H 2.779467 -1.320232 0.037366 -0.882365 0.243090 0.257313
H 2.933978 0.142551 -0.798883 0.106027 0.467468 -0.088470
H 0.718854 -1.217804 -1.668681 1.600222 -1.182913 -1.898073
H -1.598681 -0.782689 -2.064834 0.118240 -0.293493 0.428432
H -2.980817 0.516869 -0.174741 1.688581 -0.885988 -0.573295
H -1.776041 1.133758 1.827803 0.715792 -0.713837 -1.013465
H 0.508328 0.898902 1.966372 1.810497 1.063149 2.849997
15
Properties=species:S:1:pos:R:3:forces:R:3 energy=-7381.576293978976
C 2.444899 -0.160860 0.161665 -1.703432 2.690939 0.380265
C 0.942153 0.008745 0.155298 0.363168 -2.466755 -3.309398
C 0.161909 0.430248 1.160803 -0.460813 1.682313 2.572768
C -1.205021 0.688807 0.943904 0.451590 -0.881542 -1.051222
C -1.821588 0.245654 -0.234340 -1.507522 -2.175087 -0.507277
C -1.102407 -0.593679 -1.185141 0.785015 1.452525 0.443505
C 0.275436 -0.563944 -1.025236 0.813347 0.238598 0.943381
H 2.847107 0.805670 -0.223718 0.244958 -0.645112 -0.169511
H 2.746241 -0.208420 1.180656 0.806956 -0.561441 1.007825
H 2.621103 -0.988995 -0.453670 1.147882 -1.303708 -0.788938
H 0.598618 0.650087 2.194061 -0.434996 -0.046622 -1.310231
H -1.724056 1.178511 1.734304 -0.840972 0.321362 0.489563
H -2.949554 0.159298 -0.282291 1.075633 0.712982 0.009498
H -1.407640 -1.152566 -2.110376 -0.692579 0.728456 1.058453
H 0.898127 -1.097429 -1.763632 -0.048236 0.253092 0.231319
15
Properties=species:S:1:pos:R:3:forces:R:3 energy=-7381.788644236385
C 2.456062 -0.099874 0.065927 -0.551124 3.327594 -1.348332
C 0.948204 0.076635 0.130018 1.106321 -1.795428 0.120397
C 0.249889 -1.144726 0.205316 -2.756625 0.145230 0.533349
C -1.213461 -1.190234 0.123201 2.707198 -1.777729 -0.450373
C -1.851576 -0.029579 -0.212469 -0.359879 1.090225 0.710145
C -1.126776 1.170362 -0.179359 -1.948062 0.767830 -0.814189
C 0.243906 1.251012 -0.075783 -0.351486 0.896148 -0.305386
H 2.600645 -0.496732 -0.917911 0.528176 -0.143095 -1.164892
H 3.050254 0.877210 0.126091 -0.688976 -1.190165 0.135202
H 2.838979 -0.845044 0.671232 0.761152 -1.422133 1.943400
H 0.708285 -2.129139 0.355610 0.409101 0.389641 0.033093
H -1.640136 -2.226788 0.174809 -0.088307 1.061630 -0.084937
H -2.905876 0.115858 -0.416352 -0.383116 -0.577229 0.104840
H -1.795024 2.058677 -0.348229 1.046087 -0.366963 0.056633
H 0.643304 2.246809 -0.321994 0.569541 -0.405557 0.531049
15
Properties=species:S:1:pos:R:3:forces:R:3 energy=-7381.111801274520
C 2.413334 -0.110941 0.248468 1.665600 -2.018975 0.141286
C 0.950806 -0.184618 0.018527 -0.069398 1.564022 0.781568
C 0.368590 1.131585 -0.029254 -0.808880 0.186614 1.119879
C -1.002800 1.301586 -0.055223 -1.986625 0.852912 -0.665402
C -1.836951 0.222705 -0.078661 1.289778 -2.048202 -0.650913
C -1.249026 -1.029865 -0.128981 -1.259537 -1.245888 0.339278
C 0.111441 -1.308129 -0.037762 -0.804523 -1.190068 -0.088908
H 2.762784 -0.348283 1.311152 -0.724401 0.501432 -0.808773
H 2.918447 -1.009075 -0.311265 -0.328712 1.898140 0.345772
H 2.703252 0.940427 -0.012354 0.587911 -1.138709 -0.033889
H 0.794036 2.094177 0.326629 1.120043 -0.790321 -0.761310
H -1.643983 2.194125 -0.175666 1.315995 0.667600 0.392129
H -2.876115 0.168577 -0.225748 -1.570564 0.827085 0.049628
H -1.993607 -1.844594 -0.184157 0.572040 -0.138135 -0.004775
H 0.249978 -2.460157 0.021459 1.001273 2.072492 -0.155571
15
Properties=species:S:1:pos:R:3:forces:R:3 energy=-7381.269671507632
C 2.503272 0.171852 -0.130169 -1.989994 0.229447 4.055237
C 1.002634 -0.092717 0.147492 -2.882374 -0.200115 -2.362453
C 0.262539 -0.776347 -0.936637 0.764465 1.381829 2.352331
C -1.113808 -0.627088 -1.089297 0.111640 1.088857 0.788262
C -1.839524 0.065951 -0.130229 -1.021274 2.130803 1.401258
C -1.262865 0.601198 1.096491 1.048901 -1.707521 -2.377402
C 0.131543 0.565979 1.100987 2.263570 -0.892321 0.122374
H 2.640746 -0.245417 -1.054037 1.084402 -0.615822 -2.647950
H 2.698908 1.236094 0.021569 0.140948 0.177658 -0.603542
H 3.111108 -0.334043 0.632716 0.214916 -0.192461 -0.099172
H 0.768325 -1.304370 -1.696729 0.986724 -0.586323 -0.970115
H -1.589814 -0.763474 -2.046603 -0.128865 -0.629746 -0.384967
H -2.796196 0.574064 -0.409007 0.137143 -1.140748 0.224367
H -1.813829 0.938124 1.962874 -0.336246 0.478344 -0.096727
H 0.748782 0.986638 1.891191 -0.393956 0.478121 0.598499
15
Properties=species:S:1:pos:R:3:forces:R:3 energy=-7381.588942173587
C 2.503639 -0.005369 0.118824 -0.100328 -1.116497 2.131185
C 0.943223 -0.017375 -0.044066 2.138986 -0.328110 0.743423
C 0.221058 -0.131583 1.167554 -2.165259 0.196642 -0.639146
C -1.246292 -0.130413 1.195031 1.729117 1.276743 0.239013
C -1.924496 0.059488 -0.032895 -0.901010 -0.162213 0.781152
C -1.137506 0.060744 -1.179021 0.766731 0.442448 -1.905253
C 0.295707 0.094332 -1.271754 -1.448236 0.353253 0.937708
H 3.033114 -1.019538 0.351567 -1.341128 1.127545 -0.431896
H 3.120510 0.413131 -0.634038 0.192962 0.612551 -1.520038
H 2.778712 0.602414 1.020404 -0.347405 -0.271736 -0.343793
H 0.816658 -0.016223 2.070422 -0.234994 -0.406528 0.331095
H -1.769600 0.019521 2.172316 0.393739 -0.416792 -0.709179
H -3.077016 0.295703 -0.083287 2.221241 -0.792035 0.058321
H -1.615840 0.096020 -2.152322 -0.461972 0.292916 -0.186485
H 0.820588 0.446394 -2.192314 -0.442444 -0.808189 0.513893
15
Properties=species:S:1:pos:R:3:forces:R:3 energy=-7381.573973977816
C 2.450569 -0.149363 0.113758 1.949680 -0.313769 -0.232044
C 0.972241 -0.147984 0.017331 -0.396382 0.213766 0.262442
C 0.152067 -0.427517 1.092612 -2.001675 -0.800217 2.067278
C -1.254564 -0.280901 1.061979 0.566065 -0.830030 0.174699
C -1.874414 0.069400 -0.104279 0.359247 1.540463 0.851329
C -1.057449 0.552747 -1.089803 0.193855 -0.116834 -1.770925
C 0.317847 0.384144 -1.119960 -0.101511 -0.996069 0.821808
H 2.758648 0.920231 0.365154 0.096143 -1.048267 -0.852401
H 3.003764 -0.763266 0.884378 -1.196092 0.262095 -0.164194
H 2.871910 -0.596620 -0.843062 -0.079555 1.156432 0.611281
H 0.331791 -0.888923 2.082587 1.499595 0.386458 -0.489193
H -1.860526 -0.474079 1.948018 0.175917 -0.231447 0.127162
H -2.891293 0.349808 -0.087613 -1.482838 -0.064887 -0.230438
H -1.514103 1.034987 -1.934199 -0.283541 0.107061 -0.721558
H 0.799667 0.412807 -2.076595 0.701092 0.735244 -0.455247
15
Properties=species:S:1:pos:R:3:forces:R:3 energy=-7381.534051451696
C 2.445965 -0.083003 0.231105 -0.617782 -2.056337 0.604868
C 0.921744 0.026861 0.070135 0.508403 -0.865271 -0.081108
C 0.249547 -0.768875 -0.931647 3.860975 0.265893 0.484275
C -1.074153 -0.690822 -1.071776 -3.426985 -1.236692 -0.489148
C -1.837752 -0.014855 -0.124920 -0.021642 1.051367 0.879229
C -1.222444 0.750936 0.882907 0.008460 0.781776 0.091010
C 0.187115 0.823530 0.935169 1.297304 0.598996 1.039149
H 3.023590 0.827021 0.262882 0.028069 0.731203 1.122473
H 2.844505 -0.995371 0.894444 -0.894117 2.154255 -0.906355
H 2.696049 -0.357540 -0.744876 0.993482 -1.105409 -1.991021
H 0.885575 -1.430744 -1.565390 -0.468710 0.469396 0.251145
H -1.687698 -1.303159 -1.788960 0.944923 0.471353 0.279550
H -2.923347 -0.059587 -0.171626 -0.114280 0.065743 -0.021307
H -1.828446 1.375336 1.566985 0.180538 -0.433294 -0.225372
H 0.921883 1.423642 1.654797 -2.278641 -0.892980 -1.037388
15
Properties=species:S:1:pos:R:3:forces:R:3 energy=-7381.658645421325
C 2.512722 -0.152462 0.139118 -2.311121 -0.125042 0.860270
C 0.940042 -0.171885 0.057692 0.685565 0.458844 2.681803
C 0.133815 0.516457 1.058302 3.537703 -0.402206 -0.248401
C -1.198551 0.760844 0.933070 0.803417 1.691597 2.954487
C -1.802249 0.292162 -0.170318 -4.714762 -0.315064 -2.225663
C -1.137581 -0.471206 -1.098556 1.034547 -0.953779 0.637481
C 0.227593 -0.796375 -0.926302 -0.538098 0.774546 -2.263266
H 2.795830 0.188067 -0.826025 0.910623 0.611801 -0.912237
H 2.809052 0.498324 0.960747 0.142413 0.560408 -0.137315
H 3.020057 -1.083312 0.362262 -0.203206 -0.780921 -0.150755
H 0.672071 0.963014 1.919211 -0.164607 -0.242911 -0.364175
H -1.536511 1.404698 1.801352 -0.704111 -0.742225 -1.303618
H -2.935509 0.448866 -0.405176 1.835498 -0.014690 0.658553
H -1.665281 -0.955077 -1.890450 -0.484867 -0.079507 -0.751746
H 0.703675 -1.195687 -1.837876 0.171004 -0.440850 0.564584
15
Properties=species:S:1:pos:R:3:forces:R:3 energy=-7381.606063749863
C 2.421999 -0.362064 0.183911 -0.414053 2.941863 -1.510587
C 0.955401 -0.020286 0.028550 -0.092902 0.172926 1.928169
C 0.211861 0.268014 1.200879 -2.395127 -0.849098 -0.667431
C -1.218866 0.236723 1.132758 2.023479 0.341207 -1.090530
C -1.841747 0.079108 -0.125088 -1.103621 -0.273538 2.355176
C -1.124298 -0.034850 -1.275546 2.951750 0.156041 0.992332
C 0.311371 -0.065729 -1.189103 -1.224623 -0.068370 0.032946
H 2.873895 0.554551 0.813959 -0.084918 -2.274874 -1.604573
H 2.523972 -1.323505 0.596224 0.294470 -1.269825 1.431462
H 2.712480 -0.570419 -0.899446 0.803346 0.958329 1.139810
H 0.616652 0.262983 2.194548 0.724029 0.190237 0.461442
H -1.828679 0.331556 2.014851 -0.166901 0.033824 0.464014
H -2.918751 -0.100851 0.006008 0.033496 0.314351 -0.884924
H -1.582781 -0.144004 -2.190515 -1.093890 -0.272197 -2.211218
H 0.990780 -0.211629 -2.014923 -0.254535 -0.100878 -0.836086
15
Properties=species:S:1:pos:R:3:forces:R:3 energy=-7381.689676320376
C 2.483310 -0.187959 0.179368 -1.559377 -0.354788 -0.994696
C 0.969637 0.068437 0.033121 -0.023305 -0.902047 1.299640
C 0.267010 -0.242371 -1.149613 0.587286 1.325089 -0.950352
C -1.147729 -0.192047 -1.273710 1.371505 0.057822 -0.572894
C -1.888432 -0.018332 -0.088625 -0.889155 -0.186778 -0.861642
C -1.211478 0.357295 1.105864 0.920067 -1.700029 -1.926622
C 0.200664 0.302045 1.200128 -0.567852 0.385068 -1.003590
H 2.985588 0.276456 1.019890 0.006462 -0.016946 0.311657
H 2.604520 -1.263585 0.093388 0.113499 -0.719544 1.013403
H 2.983219 0.019664 -0.740005 0.641383 1.145476 -0.954836
H 0.922137 -0.303312 -2.051877 -0.661182 -0.280595 0.315073
H -1.551012 -0.225869 -2.343927 0.092415 -0.356711 1.658066
H -2.991688 -0.309330 -0.227033 1.291971 1.033039 0.891437
H -1.739546 0.366868 1.996407 -1.281977 0.365201 1.852666
H 0.683610 0.402797 2.176022 -0.041739 0.205742 -0.077313
15
Properties=species:S:1:pos:R:3:forces:R:3 energy=-7381.421295465962
C 2.463475 0.003037 0.071431 -0.495181 0.419842 -0.162294
C 0.960775 -0.055975 -0.020758 -1.295968 0.285218 -1.513566
C 0.202100 0.026490 -1.241508 1.406127 0.771905 2.154715
C -1.163192 0.121090 -1.159603 -0.608989 -0.027392 -3.779816
C -1.808897 -0.076876 -0.022478 -3.842903 -0.745885 2.874889
C -1.156197 -0.127806 1.182713 -0.170937 0.433721 0.369320
C 0.197664 0.020141 1.153337 1.408614 -0.714552 -1.126032
H 2.835751 1.024522 0.070883 0.034565 0.570641 0.011870
H 2.730609 -0.420676 1.014299 0.490081 -0.407958 0.944332
H 3.050139 -0.506190 -0.681071 -0.164243 -0.442524 -0.605471
H 0.682975 0.545158 -2.019208 0.908661 -0.209595 -1.820214
H -1.806674 0.305376 -2.050978 0.721854 0.006529 0.238033
H -2.926270 -0.092660 0.101525 0.810356 0.011312 -0.745992
H -1.752540 -0.115841 2.078135 -0.004325 0.003085 0.621260
H 0.811798 0.332755 1.926417 0.802289 0.045653 2.538967
15
Properties=species:S:1:pos:R:3:forces:R:3 energy=-7381.468840477987
C 2.454558 -0.056406 0.273035 0.605521 0.651679 0.506872
C 1.036036 -0.063949 0.026733 -5.370928 -0.266629 0.495525
C 0.202273 0.967923 0.606565 1.275961 -1.507923 -0.743266
C -1.170044 1.053538 0.529353 -1.601949 0.330265 -0.024960
C -1.914341 0.030236 -0.068584 1.714230 0.369389 0.703894
C -1.110158 -0.950133 -0.648959 -2.844459 0.384177 -0.985604
C 0.213167 -1.009077 -0.741997 4.719097 1.509990 1.679252
H 2.933163 -0.995300 0.055495 0.467977 -0.493473 -0.055190
H 2.696195 0.687404 -0.466396 1.493073 0.584380 -0.451972
H 2.707903 0.343777 1.290621 -0.059544 -0.400428 -0.722715
H 0.632013 1.700015 1.228381 1.057231 1.134857 0.685142
H -1.656564 1.970344 0.912607 0.117514 -0.481337 0.132806
H -2.981056 -0.091013 -0.038812 -0.530785 0.302246 -0.172840
H -1.613366 -1.520057 -1.366788 -1.082261 -1.752346 -0.815419
H 0.719673 -1.761917 -1.330133 0.039324 -0.364848 -0.231522
15
Properties=species:S:1:pos:R:3:forces:R:3 energy=-7381.676840935862
C 2.464236 -0.289380 0.066253 0.597233 -0.303273 2.006548
C 0.994483 -0.041811 0.060549 -2.247242 -1.743522 1.133520
C 0.070873 -1.162239 0.345604 0.523763 1.104864 -2.494368
C -1.336066 -1.109578 0.045038 2.431289 0.429582 0.757848
C -1.877895 0.145478 -0.167805 -0.556259 1.943839 -0.554160
C -1.009362 1.308695 -0.220610 -0.398327 -3.123186 0.671258
C 0.375635 1.198623 -0.087282 -0.575111 -0.380106 -0.625080
H 2.825072 0.022129 1.142696 -0.307179 -1.096582 -1.483687
H 2.634506 -1.395657 -0.171616 0.288613 1.422727 0.460829
H 3.082751 0.383893 -0.538960 -0.283434 -0.140928 -0.546448
H 0.505270 -2.154247 0.263872 0.248261 -0.296314 0.535307
H -1.794539 -2.083966 -0.082340 -0.682476 0.088832 0.221447
H -2.972304 0.323419 -0.389737 1.093362 -0.358224 0.220526
H -1.436536 2.238805 -0.414379 -0.797076 1.693424 -0.302481
H 0.946293 2.073545 -0.306281 0.664582 0.758869 -0.001059
15
Properties=species:S:1:pos:R:3:forces:R:3 energy=-7381.604383911456
C 2.513052 -0.019424 0.170267 -2.186248 -1.128412 -1.983154
C 0.933179 -0.123689 0.147674 2.605252 3.323315 0.111290
C 0.275098 -0.654259 -0.915376 -0.354598 -2.237005 0.153460
C -1.101288 -0.749694 -0.982771 -1.305445 0.277940 -1.255418
C -1.942481 -0.010652 -0.162387 0.977979 0.127178 1.455345
C -1.199004 0.770356 0.797880 -0.324194 -0.821154 -0.796606
C 0.196113 0.793488 0.928308 0.149092 0.052576 0.400027
H 2.782896 0.240296 1.131469 0.933040 0.726250 2.296221
H 2.934146 -1.001018 -0.058620 0.202239 -0.174216 -0.065924
H 2.921576 0.705061 -0.560985 -0.352400 -0.111556 0.188616
H 0.793868 -1.367642 -1.509960 0.746568 -0.400077 -0.992870
H -1.514990 -1.338691 -1.803917 -0.112624 -0.127169 0.036389
H -3.060828 -0.166865 -0.159701 1.214117 0.521664 0.060825
H -1.697969 1.306397 1.537061 -1.322921 1.291685 1.129926
H 0.718024 1.550642 1.620835 -0.869858 -1.321022 -0.738127
15
Properties=species:S:1:pos:R:3:forces:R:3 energy=-7381.530036343035
C 2.384671 -0.312094 0.285735 0.073987 -0.255051 -2.022970
C 0.935526 -0.099095 0.025746 -1.054359 1.045483 1.353730
C 0.301885 0.218192 -1.248394 3.770204 -1.914902 1.254707
C -1.034880 0.114796 -1.272041 -1.495214 0.952554 -0.212166
C -1.799577 0.207087 -0.127374 -1.390185 -1.173660 -0.871294
C -1.230379 0.025142 1.079036 0.684813 0.972141 2.190666
C 0.124821 -0.112367 1.214990 1.709620 0.104539 -1.522989
H 2.877461 0.148401 1.098626 -0.093091 0.854783 1.627946
H 2.638850 -1.373018 0.363152 0.050272 -0.241651 -0.335396
H 2.863620 0.155865 -0.557399 0.953423 -0.243690 -0.844504
H 0.858601 0.228782 -2.227777 -0.189956 0.019929 1.080733
H -1.451363 0.055143 -2.232723 -1.167275 0.222144 -1.385449
H -2.871694 0.172304 -0.121602 -0.742292 0.265229 -0.544811
H -1.763259 0.209631 1.989854 -0.825359 -0.228174 0.556164
H 0.636346 -0.092368 2.192640 -0.284588 -0.379673 -0.324367
15
Properties=species:S:1:pos:R:3:forces:R:3 energy=-7381.191136843093
C 2.497647 -0.313185 0.022236 -1.301826 -0.110077 -1.940963
C 0.968505 -0.017456 0.240182 0.524527 0.662889 -3.553260
C 0.059819 -0.774873 0.995631 2.431530 -1.211288 1.092815
C -1.289268 -0.735786 0.816994 -1.929375 1.910594 -1.326309
C -1.903943 0.177762 -0.208205 1.827845 -1.847699 2.022552
C -1.083994 0.925522 -1.033795 2.725682 -0.212963 0.263837
C 0.394972 0.793947 -0.784393 -0.936489 1.892122 -1.434620
H 3.050265 -0.396254 0.872920 1.287249 -0.749110 3.275062
H 2.800810 -1.217531 -0.609750 -1.034981 0.801397 0.605633
H 3.065859 0.509684 -0.419969 -0.576735 0.494803 -0.592751
H 0.612740 -1.466961 1.702703 -1.162183 0.434693 -0.375731
H -1.966855 -1.302977 1.470872 0.181348 0.072156 -0.261199
H -2.969307 0.163675 -0.184353 -0.921307 0.218076 -0.483960
H -1.413636 1.550676 -1.913293 0.142536 -0.557505 1.094730
H 1.065423 1.494418 -1.498135 -1.257820 -1.798087 1.614165
15
Properties=species:S:1:pos:R:3:forces:R:3 energy=-7381.598995743505
C 2.418557 -0.252332 0.106160 0.205311 -1.435084 -1.062855
C 0.958050 -0.038912 0.079902 -1.704720 1.857431 -2.046230
C 0.152393 -0.312084 1.153846 0.937207 -1.555293 2.511622
C -1.225316 -0.404240 1.112715 -2.270520 1.785272 -1.440027
C -1.827979 0.009793 -0.108279 3.420490 -0.136935 -0.743049
C -1.079133 0.447186 -1.282436 -0.794820 0.172528 1.799587
C 0.297334 0.576479 -1.080016 0.803959 -2.166562 0.832422
H 2.759601 -0.389022 1.107905 0.424726 -0.186061 1.033547
H 2.713425 -1.200944 -0.477242 -0.409311 1.098564 0.641650
H 2.964859 0.562337 -0.325496 0.496062 0.709968 -0.461823
H 0.692954 -0.563059 2.093581 -0.362825 -0.088704 -0.304482
H -2.013531 -0.483998 1.925534 1.594200 -0.321989 -0.375942
H -2.840053 0.103809 -0.098546 -3.183614 0.007774 -0.333682
H -1.647170 0.769401 -2.202123 0.781882 -0.165523 0.912136
H 1.017418 0.894173 -1.807138 0.061973 0.424615 -0.962875
15
Properties=species:S:1:pos:R:3:forces:R:3 energy=-7381.631595611507
C 2.389339 -0.179854 0.254009 0.943420 -0.530761 3.066264
C 0.951037 -0.087088 0.045468 -1.152868 -0.770597 -0.393633
C 0.371350 0.986909 -0.656132 0.045661 -0.316213 0.604326
C -1.014478 1.153247 -0.590007 0.053615 2.303956 -2.345661
C -1.853782 0.193323 -0.117407 -3.132022 -0.665027 0.494080
C -1.269389 -0.887719 0.481602 0.149078 -4.549017 1.148742
C 0.115179 -1.137267 0.537920 0.835206 1.830443 0.138439
H 2.583397 -1.046346 0.982981 0.206658 0.551827 -1.469890
H 3.002778 -0.120471 -0.605457 0.840504 -0.507940 -1.265304
H 2.775696 0.643003 0.891479 -0.356963 0.245623 -0.190226
H 1.031954 1.628844 -1.257241 -0.319551 0.261072 0.440568
H -1.479852 2.036534 -1.096067 0.457112 -0.533378 0.261784
H -3.038121 0.191015 -0.243809 2.549186 0.398324 0.376491
H -1.833303 -1.817518 0.844340 0.018946 1.502911 -0.443354
H 0.660353 -2.008990 1.015314 -1.137982 0.778779 -0.422626
15
Properties=species:S:1:pos:R:3:forces:R:3 energy=-7381.730598369326
C 2.380272 -0.311922 0.121335 -0.290066 2.469352 0.829653
C 0.864468 -0.098147 0.067601 3.113294 -1.705106 0.921546
C 0.447292 0.474637 -1.095290 -2.942740 -0.261786 1.892560
C -0.933273 0.709184 -1.112171 0.020542 0.258772 -0.776595
C -1.829077 0.282402 -0.136020 -0.186418 -0.840093 1.045370
C -1.307173 -0.436721 1.049289 -1.326884 0.968060 -1.837276
C 0.054559 -0.570662 1.121151 0.281387 0.234779 -0.682283
H 2.800634 -0.688239 -0.779786 0.237358 -0.870367 -1.022643
H 2.790945 0.755600 0.133069 -0.037668 -1.079106 0.396687
H 2.755449 -0.845588 0.986606 0.088703 -0.231771 0.314056
H 1.092392 0.616747 -1.902397 1.011524 0.630120 -1.343960
H -1.293586 1.238807 -1.980171 -0.612884 0.126270 -0.387342
H -2.900932 0.447817 -0.436078 0.798185 -0.297643 1.004890
H -1.859618 -0.950815 1.848303 -0.540860 0.479792 -0.454875
H 0.462851 -1.154295 1.941760 0.386526 0.118726 0.100213
15
Properties=species:S:1:pos:R:3:forces:R:3 energy=-7381.575671777805
C 2.504652 -0.157509 0.139606 -2.767937 1.446894 -2.619781
C 0.937915 -0.128961 0.053357 0.618519 1.565280 1.618274
C 0.174591 0.483007 1.138490 -0.122402 -2.305719 -0.770365
C -1.251496 0.454298 1.096281 3.407460 0.996077 -0.757684
C -1.810058 0.193914 -0.132149 -3.049060 0.017361 -1.444039
C -1.125463 -0.331331 -1.227208 1.800660 0.480776 2.405564
C 0.265103 -0.523814 -1.089969 -1.666107 0.508854 0.931391
H 2.837394 0.892188 -0.014952 0.114918 -0.428193 -0.372538
H 2.701196 -0.336811 1.124976 1.232645 -1.226470 2.725480
H 2.880306 -0.839879 -0.634554 0.399204 0.047188 0.445361
H 0.599939 0.686959 2.135471 0.352785 0.172901 -0.541312
H -1.601417 0.945001 1.963146 -1.670575 0.261138 0.771903
H -2.893344 0.397383 -0.388084 0.811211 -0.236155 0.868004
H -1.658177 -0.589466 -2.086086 -0.744616 -0.411724 -1.563519
H 0.765663 -1.030304 -1.841899 1.283295 -0.888207 -1.696738
15
Properties=species:S:1:pos:R:3:forces:R:3 energy=-7381.802324268017
C 2.418822 -0.116214 0.094279 1.491691 0.955099 1.246156
C 0.959915 0.091066 0.065638 -1.124126 -0.320317 -2.187836
C 0.210223 -0.025648 1.213545 3.024113 -0.496400 1.180326
C -1.099813 -0.237803 1.115602 -3.790022 1.459808 0.063503
C -1.872188 0.024818 -0.068242 0.726974 -1.324209 0.909474
C -1.185263 0.176091 -1.271353 0.494545 -0.502224 -0.514086
C 0.247775 0.135522 -1.173491 0.049885 0.681109 0.246423
H 2.664827 -1.207035 0.236086 0.023405 0.897838 -0.047196
H 2.886241 0.278036 -0.806101 0.219747 -0.248848 -0.456998
H 2.904410 0.533620 0.929225 -0.640099 -1.245228 -0.888781
H 0.819795 -0.113847 2.149694 -0.896865 0.018885 -0.338528
H -1.653251 -0.315566 2.040387 -0.393556 -0.362366 0.348094
H -2.953528 -0.129976 0.032121 0.152855 0.277806 -0.354136
H -1.759764 0.146876 -2.260687 1.019088 0.358153 1.215822
H 0.910775 0.239122 -2.033776 -0.357635 -0.149106 -0.422237
15
Properties=species:S:1:pos:R:3:forces:R:3 energy=-7381.448243706456
C 2.441777 0.024396 -0.166683 -0.246521 -0.799477 -1.898328
C 0.947561 0.018932 0.206887 0.225802 0.087934 -0.703186
C 0.209565 -1.185050 0.309963 2.078838 2.774183 0.161038
C -1.123218 -1.192641 0.115933 -0.854444 -1.888630 0.247596
C -1.838166 -0.054244 -0.189278 -0.723893 0.228583 -0.379766
C -1.174548 1.205257 -0.135222 -0.472405 -0.873034 -1.175609
C 0.204671 1.209446 0.011416 -0.056129 -1.853819 0.812965
H 3.086969 0.769215 0.337999 -0.134567 -0.575541 0.370812
H 2.855356 -1.080648 -0.205249 -0.434125 2.183337 0.276207
H 2.444438 0.433656 -1.274445 0.159739 -0.966627 1.644369
H 0.690241 -2.095979 0.430149 1.237712 -1.789879 0.299951
H -1.439525 -2.264988 0.146633 -1.043088 1.033979 -0.288413
H -2.821239 -0.314930 -0.618485 -0.059923 1.078021 0.410557
H -1.584439 2.134868 -0.546412 -0.516814 -0.201011 0.425157
H 0.728665 2.109024 -0.092832 0.839820 1.561980 -0.203350
15
Properties=species:S:1:pos:R:3:forces:R:3 energy=-7381.416249120036
C 2.420622 -0.040204 0.072633 -0.881501 -1.963424 4.208761
C 0.944219 0.040555 -0.069335 -0.293195 -1.686910 0.934530
C 0.257279 -1.241083 0.111545 -0.984397 2.727128 -0.715601
C -1.157973 -1.220748 0.082533 0.915497 0.193038 0.104548
C -1.842105 0.003843 -0.185624 -0.189309 -0.576368 0.492107
C -1.185747 1.261634 -0.154963 0.522069 -0.716893 0.926442
C 0.256685 1.233569 0.060549 -3.045159 -0.279378 -1.736425
H 2.723286 -1.097478 0.085607 -0.149964 -0.227770 0.008427
H 3.130988 0.346884 -0.538492 1.697734 2.205632 -2.326869
H 2.627111 0.262628 1.165828 0.181744 -0.028163 -1.356105
H 0.916392 -2.075839 0.265136 -0.129119 -0.740878 0.064045
H -1.772912 -2.106741 0.356763 0.467602 0.376861 -0.510759
H -2.922659 -0.212899 -0.310932 0.315067 1.028941 0.070159
H -1.749701 2.243928 -0.095503 0.607104 -1.187820 -0.356568
H 0.706021 2.193062 0.057310 0.965826 0.876003 0.193309
15
Properties=species:S:1:pos:R:3:forces:R:3 energy=-7381.548609486670
C 2.419150 -0.202512 0.156876 1.397955 2.051002 -0.448587
C 0.930217 -0.049661 0.080048 1.040827 -3.953884 1.136313
C 0.379120 1.063744 -0.383946 -0.047921 1.464017 -1.707187
C -0.985821 1.110564 -0.613410 0.652443 2.344271 0.253540
C -1.851468 0.247495 -0.050511 1.119711 -2.209069 0.007713
C -1.293583 -0.958293 0.394083 -0.837914 -1.425749 0.136107
C 0.064383 -1.186606 0.388249 0.917366 2.724330 0.533853
H 2.940719 -0.317688 -0.832441 -0.686758 0.300589 0.231134
H 2.989839 0.692130 0.653309 -1.093864 -1.401146 -0.560317
H 2.679632 -1.105187 0.629467 0.472422 -1.297430 1.210018
H 1.081126 1.837262 -0.709990 -0.422364 0.307886 -0.121934
H -1.309444 1.994046 -1.093491 -0.829420 1.154519 -0.518673
H -2.870332 0.413390 0.011397 -2.212020 0.307627 -0.216146
H -1.908201 -1.846455 0.654958 -0.063796 0.753959 0.242576
H 0.424377 -1.960991 1.028431 0.593332 -1.120923 -0.178411
15
Properties=species:S:1:pos:R:3:forces:R:3 energy=-7381.829196820592
C 2.363503 -0.354173 0.158463 0.084679 0.985842 -0.754312
C 0.871501 -0.108551 0.063022 3.897898 -0.003605 0.474837
C 0.346172 0.338962 -1.127758 -0.158639 -0.671633 -0.250449
C -1.012068 0.436314 -1.242040 -1.764440 0.515175 -1.006695
C -1.842288 0.197272 -0.113767 2.933869 0.534696 -1.609764
C -1.211222 -0.160485 1.047787 -1.435007 0.085202 1.527281
C 0.185200 -0.286999 1.204209 -3.799471 -0.682411 0.345026
H 2.682325 -1.115230 -0.519212 0.236895 -0.732829 -1.054147
H 2.942992 0.555071 -0.096052 -0.075899 -0.163629 0.138763
H 2.695347 -0.731443 1.100247 0.072402 -0.022075 1.178125
H 1.052237 0.401720 -1.934536 0.077355 0.347756 -0.749979
H -1.494065 0.699388 -2.218228 0.422879 -0.066271 0.691698
H -2.835066 0.493983 -0.176189 -2.115412 -0.001475 0.049911
H -1.961834 -0.301759 1.839105 0.697367 -0.158046 0.536653
H 0.483448 -0.743386 2.125737 0.925525 0.033303 0.483050
15
Properties=species:S:1:pos:R:3:forces:R:3 energy=-7381.622928725246
C 2.434811 -0.325477 0.114691 -0.085146 2.904884 -0.550268
C 1.006706 -0.068296 0.144092 -4.343792 0.325929 -1.125285
C 0.138538 0.465941 1.191166 3.235819 -1.128733 0.503655
C -1.217402 0.472401 1.051421 -0.944189 0.147967 -0.453270
C -1.842806 0.168874 -0.147497 -0.128427 -0.327709 -1.559054