15
Properties=species:S:1:pos:R:3:forces:R:3 energy=-7381.235776538730
C 2.459507 -0.334883 0.227436 -0.947401 -0.144050 -2.597931
C 0.964605 -0.000272 0.076060 -1.174214 -3.502754 -0.549811
C 0.112893 -1.151781 -0.217951 -0.043677 2.485095 1.109653
C -1.280076 -1.104201 -0.263980 2.622394 1.185180 0.280814
C -1.834477 0.108426 -0.029136 -1.705998 2.471590 -0.093383
C -1.061860 1.315646 0.076636 -0.409277 -0.623681 -0.519880
C 0.356736 1.245103 0.144068 -2.509838 -2.753039 -0.453848
H 2.940228 0.625766 -0.054112 0.688655 -0.423104 1.053791
H 2.603291 -0.839964 1.215745 0.592605 0.629699 -0.708333
H 2.739196 -1.026225 -0.710191 -0.419312 0.984667 2.192938
H 0.455932 -2.119396 -0.118384 1.626216 -2.171284 -0.357990
H -1.818535 -1.950641 -0.531220 -1.209353 -1.675116 -0.164082
H -2.950346 0.124136 -0.002602 0.655247 0.561819 -0.128900
H -1.624661 2.255327 -0.117493 0.552515 -0.333053 0.693410
H 1.023295 2.002276 0.162473 1.681436 3.308032 0.243553
15
Properties=species:S:1:pos:R:3:forces:R:3 energy=-7381.622538905801
C 2.445884 -0.119858 0.045105 1.500680 -1.212316 5.998686
C 0.980011 -0.077567 0.075789 -1.266370 0.314503 0.026912
C 0.170707 -1.199095 0.136719 -0.148976 -2.159585 -0.938319
C -1.240567 -1.118022 -0.095633 0.779991 -0.823565 0.017841
C -1.869852 0.126483 -0.147141 0.364720 -0.738441 -0.644055
C -1.114044 1.281094 -0.088979 1.542100 -0.628096 1.231255
C 0.285738 1.134058 0.062185 -0.083375 2.053091 -0.458497
H 2.950602 -1.101764 0.399260 -1.365451 0.636710 -0.349463
H 2.963127 -0.015856 -0.825671 1.174621 1.308773 -2.906293
H 2.851546 0.529727 0.958813 -0.470313 -0.515573 -2.175976
H 0.749811 -2.188934 0.180529 -1.209395 1.020753 -0.063858
H -1.828224 -2.034057 -0.352967 0.482711 0.564908 0.607025
H -2.905329 0.166356 -0.396287 -1.003400 0.063366 0.043028
H -1.568603 2.242002 0.075563 -0.186066 0.559058 -0.388936
H 0.863890 2.080874 0.103921 -0.111478 -0.443585 0.000650
15
Properties=species:S:1:pos:R:3:forces:R:3 energy=-7381.350521630357
C 2.445170 -0.298504 0.199526 -2.604468 -0.967795 -1.353717
C 0.912990 -0.021054 0.086513 1.607083 -0.599871 1.228188
C 0.438840 0.731786 -0.961870 -3.175115 -1.282028 -1.105214
C -1.001421 0.733256 -1.131146 0.652445 1.156347 0.844518
C -1.837719 0.206910 -0.100917 1.032175 0.642028 -1.581746
C -1.330381 -0.654394 0.879078 0.288556 1.143206 0.807998
C 0.080211 -0.662207 1.020472 0.829389 -1.810345 1.270707
H 2.532164 -1.191756 -0.546297 0.742692 1.162327 1.618688
H 2.899388 0.584797 -0.184724 1.042736 0.634748 -0.449244
H 2.669797 -0.421118 1.258868 0.507623 -0.600032 -0.071875
H 1.057415 0.954323 -1.814426 0.483928 0.639836 -0.180592
H -1.501729 1.337763 -1.938282 0.614337 -0.528717 0.646999
H -2.818739 0.660727 -0.114871 -0.788493 -0.773876 0.132336
H -2.069123 -1.057800 1.599899 0.739876 -0.077552 -0.127518
H 0.714067 -1.292249 1.839973 -1.972764 1.261723 -1.679529
15
Properties=species:S:1:pos:R:3:forces:R:3 energy=-7381.617715232422
C 2.408971 -0.204858 0.236712 0.399830 0.678936 1.862255
C 0.917569 -0.094648 0.075536 0.155945 -1.420306 -1.430621
C 0.242194 -1.174590 -0.559575 -1.901584 1.927218 0.888696
C -1.225808 -0.966020 -0.590892 1.084909 -3.326501 -1.081837
C -1.848454 0.126106 -0.073800 1.090828 2.708010 0.758547
C -1.086249 1.253321 0.456238 -1.606933 -1.403286 -0.642938
C 0.272832 1.090115 0.437594 -0.453875 -1.406903 0.103808
H 2.845322 -0.531477 -0.665687 0.723401 -0.573912 -1.447906
H 2.932592 0.792510 0.476267 -0.758908 -1.321626 0.061734
H 2.652856 -1.014851 1.003241 -0.073585 1.093594 -0.540873
H 0.871052 -1.982004 -0.994980 -0.982828 0.145478 0.294301
H -1.972300 -1.764805 -0.968328 1.533760 0.935811 0.203409
H -2.899379 0.251750 -0.236503 -0.783539 -0.093421 0.251807
H -1.617042 2.133491 0.868061 0.420921 -0.305255 -0.379767
H 0.987518 1.765931 0.735348 1.151658 2.362163 1.099383
15
Properties=species:S:1:pos:R:3:forces:R:3 energy=-7381.539313680545
C 2.504272 -0.269013 0.195403 -1.423620 3.600017 -0.737964
C 0.974916 0.087910 0.141115 -0.617512 -2.866583 -1.383355
C 0.119280 0.229270 1.264051 0.652710 0.567144 -2.428531
C -1.263191 0.244120 1.065315 -0.988069 0.943646 -1.146587
C -1.900091 0.105053 -0.209701 1.128682 0.027986 -0.508384
C -1.048993 -0.177725 -1.321983 -1.153187 0.440746 2.172438
C 0.303656 -0.211338 -1.105605 2.157116 -0.372753 -0.766430
H 2.788677 -0.866180 -0.662694 -0.004851 -0.556438 -0.055615
H 2.982032 0.771478 -0.025714 0.013264 -1.583540 0.836861
H 2.734332 -0.691466 1.161597 0.537025 -0.086819 0.311746
H 0.598440 0.653497 2.110198 0.054935 -0.123122 1.528616
H -1.840541 0.645557 1.869815 -0.688590 -0.085280 0.775147
H -2.954545 0.322696 -0.513108 0.548301 -0.350546 1.126649
H -1.508068 -0.389765 -2.264914 -0.050893 -0.063009 -0.797541
H 0.895514 -0.543256 -2.015205 -0.165311 0.508550 1.072949
15
Properties=species:S:1:pos:R:3:forces:R:3 energy=-7381.712067475680
C 2.380666 -0.072777 0.135198 2.166205 -1.348791 -2.131263
C 0.897654 -0.001794 0.081613 1.547623 -0.233704 0.270170
C 0.271508 1.201593 0.362133 -2.709170 -1.303464 -0.815115
C -1.115923 1.190265 0.172834 0.067299 2.659233 0.725192
C -1.759661 0.033233 -0.193002 -1.301327 1.532176 0.725083
C -1.191348 -1.169601 -0.345217 2.867882 -0.255093 -0.028724
C 0.205670 -1.176011 -0.221378 -0.163059 -0.455953 -0.704308
H 2.826913 0.278727 1.055462 0.076788 -0.091972 0.727513
H 2.710876 -1.178907 -0.097964 -0.293853 1.889484 0.670573
H 2.948909 0.557031 -0.662839 -1.133218 -0.763172 0.842097
H 0.669348 2.103993 0.698749 1.449259 1.330724 0.449353
H -1.710729 2.182746 0.358093 0.906539 -1.889114 -0.351198
H -2.789932 0.110380 -0.151282 -2.479770 0.010146 -0.415461
H -1.721036 -2.031668 -0.613736 -0.903135 -1.341148 -0.290218
H 0.776768 -2.079604 -0.492596 -0.098064 0.260649 0.326307
15
Properties=species:S:1:pos:R:3:forces:R:3 energy=-7381.186571356724
C 2.488669 -0.060953 0.148848 0.343295 -0.891775 0.888680
C 0.929373 -0.043987 0.017898 2.688843 -2.630868 3.934675
C 0.311036 0.856059 -0.712439 -3.862169 2.434034 -3.988217
C -1.128198 0.907571 -0.982975 1.169413 -0.964938 1.679384
C -1.813636 -0.003701 -0.160888 -2.485562 2.935236 -2.449700
C -1.242917 -0.722811 0.812733 2.479061 -1.927312 0.289017
C 0.146693 -0.885353 0.872791 0.228111 -0.637828 0.606460
H 2.914497 -0.873919 -0.541970 -0.381903 0.690499 1.116723
H 3.041136 0.874532 -0.157464 -0.871624 -0.517374 0.261743
H 2.756788 -0.265481 1.299352 -0.330030 0.203603 -2.478969
H 0.895308 1.372872 -1.417914 1.057124 1.325289 -0.714825
H -1.746028 1.569625 -1.655852 1.287686 -0.559358 0.443352
H -2.898200 -0.019377 -0.335485 0.006303 -0.265088 0.375053
H -1.796378 -1.462053 1.299772 -1.233994 -0.963220 1.209069
H 0.514773 -1.752982 1.558326 -0.094554 1.769099 -1.172448
15
Properties=species:S:1:pos:R:3:forces:R:3 energy=-7381.719407761462
C 2.512911 -0.040195 0.197022 -1.236560 1.617471 2.128676
C 1.011229 0.002447 0.044200 -1.851976 -0.929980 -0.079086
C 0.253839 -1.116898 -0.464217 -1.290450 1.359350 0.388125
C -1.178892 -1.049402 -0.604208 1.965127 -0.645031 -0.362934
C -1.909365 0.033721 -0.122543 -1.810312 -2.146131 -0.211570
C -1.227508 1.090494 0.388679 1.375248 2.236466 2.326919
C 0.222808 1.109550 0.487217 0.428221 0.635390 -0.607596
H 2.807424 -0.287635 1.247142 -0.293853 0.550570 -0.213171
H 3.040087 -0.756243 -0.319506 0.855171 -1.921832 -1.945990
H 2.900376 0.941004 -0.076500 0.364568 0.232211 0.142005
H 0.703802 -2.078809 -0.641836 0.523146 -0.285239 -0.452760
H -1.683283 -1.870851 -1.133265 0.074100 -0.000586 0.443626
H -3.032071 -0.203398 0.007617 1.511778 1.140224 -0.394069
H -1.818682 1.866754 0.967069 0.798263 -0.488290 -0.870829
H 0.835719 2.036257 0.830005 -1.412472 -1.354591 -0.291345
15
Properties=species:S:1:pos:R:3:forces:R:3 energy=-7381.719559057713
C 2.555435 -0.225558 0.153592 -3.153693 0.391563 0.810049
C 0.930120 -0.037633 0.081530 1.607482 -1.637784 0.243527
C 0.167296 -0.159114 1.283399 -0.730924 0.605037 -1.870683
C -1.262739 -0.051545 1.072643 1.052525 0.082886 2.823759
C -1.876452 0.100862 -0.134074 -0.497290 0.860561 -1.742655
C -1.112832 0.287060 -1.283039 0.960564 -0.912889 -0.237338
C 0.276049 0.080037 -1.182898 -1.573333 0.704176 3.041546
H 2.983773 0.232539 -0.681473 0.774999 1.089313 -1.596659
H 2.878902 0.308190 1.042872 0.318541 -0.027905 0.337006
H 2.927833 -1.241309 0.135381 -0.291902 -0.665105 0.321902
H 0.702256 -0.260888 2.263315 -0.843031 0.119616 -0.714899
H -1.933136 0.092912 1.933755 0.307237 -0.568389 0.133882
H -2.952391 0.228542 -0.282663 -0.047238 -0.073840 0.636309
H -1.563297 0.512594 -2.264745 0.103098 -0.179290 0.372054
H 0.806484 0.198806 -2.040310 2.012964 0.212051 -2.557800
15
Properties=species:S:1:pos:R:3:forces:R:3 energy=-7381.402216124861
C 2.524890 -0.109523 0.175909 0.251582 -1.379978 -0.237554
C 0.974072 -0.116611 0.075599 -1.124480 -0.050489 -1.256745
C 0.125059 -0.717554 1.065408 -0.320380 0.631774 -1.461739
C -1.278783 -0.450444 0.994476 0.588023 -0.810193 -1.103785
C -1.849368 0.217285 -0.128343 -0.820541 -0.220344 2.113970
C -1.098334 0.658888 -1.182766 0.962545 0.118809 1.134811
C 0.250219 0.485034 -1.038774 5.007103 1.541891 -0.538152
H 3.001083 0.872574 0.085207 -0.470112 0.481445 0.371759
H 2.742671 -0.539101 1.196808 0.270501 0.370550 -0.901805
H 3.182815 -0.667941 -0.628971 -1.691494 0.307711 1.230539
H 0.544104 -1.455778 1.748768 -0.041344 0.321728 0.509884
H -1.965937 -0.936482 1.694360 0.172256 0.270839 0.184754
H -2.870543 0.568919 -0.027823 -0.474964 -0.325331 -0.125749
H -1.401537 1.425547 -1.847016 -0.813262 0.310473 -1.124276
H 0.964779 1.125801 -1.761969 -1.495431 -1.568885 1.204089
15
Properties=species:S:1:pos:R:3:forces:R:3 energy=-7381.781048002863
C 2.461580 -0.046892 0.140515 1.214969 1.223144 -0.769144
C 0.956477 -0.011509 0.094652 1.097779 -1.504009 -0.898717
C 0.263657 -0.988292 -0.691610 -0.129976 1.252355 0.614895
C -1.125961 -0.942306 -0.763326 -2.276771 -1.556582 -1.476250
C -1.954088 0.070269 -0.178289 2.269151 0.616675 0.764262
C -1.175959 0.974881 0.582049 0.087692 0.418677 1.010612
C 0.249318 0.926578 0.792342 -1.360033 2.045042 1.008726
H 2.835823 0.355186 1.106363 -0.131268 0.051774 -0.345310
H 2.905771 -1.057011 0.065326 -0.265661 0.182592 -0.271229
H 2.926220 0.639417 -0.712265 -0.788297 -1.314445 1.486737
H 0.840044 -1.700621 -1.291665 -0.193332 -0.073012 0.258787
H -1.635085 -1.793120 -1.352527 0.663758 1.250309 0.693386
H -3.050953 0.305601 -0.190638 0.944842 -0.977893 -0.412456
H -1.729088 1.717994 1.163447 0.059035 0.216364 -0.103961
H 0.779794 1.739535 1.494687 -1.191888 -1.830988 -1.560337
15
Properties=species:S:1:pos:R:3:forces:R:3 energy=-7381.470702629015
C 2.447814 -0.163447 0.236765 -0.561351 0.834924 0.499781
C 0.900654 -0.153601 0.146734 1.960341 1.842367 0.019215
C 0.209677 -1.165847 -0.477718 -2.912474 -0.424922 0.328024
C -1.280901 -1.024347 -0.581101 2.935741 -0.349107 -0.288001
C -1.859052 0.120863 -0.096256 -0.629181 1.047938 -0.297736
C -1.077587 1.239710 0.279690 1.939456 -1.533000 0.944463
C 0.351590 1.125576 0.496308 -2.695295 -1.329985 -1.252942
H 2.650805 0.828794 0.789284 0.538761 -1.786571 -0.301513
H 2.866209 -1.106539 0.677879 -0.138787 0.882592 0.039888
H 2.901231 -0.025087 -0.761566 -0.138241 -0.170492 0.051944
H 0.804746 -2.073999 -0.688895 -0.710570 0.221359 -0.396827
H -1.963330 -1.589975 -1.205044 0.336409 -1.091001 0.149410
H -2.987914 0.177709 -0.155954 1.198577 0.304753 0.038564
H -1.631690 2.098689 0.496655 -0.559292 1.745159 0.480423
H 1.027832 1.942950 0.795658 -0.564094 -0.194015 -0.014692
15
Properties=species:S:1:pos:R:3:forces:R:3 energy=-7381.601075725582
C 2.423016 -0.294009 0.181742 1.553011 2.174217 -1.010590
C 0.974987 0.077953 0.051962 -1.252519 -2.443933 -1.107712
C 0.263812 -0.763017 -0.917069 1.773746 -0.507057 1.394163
C -1.081005 -0.650728 -1.028838 -1.532118 -1.094389 -0.584082
C -1.829024 0.122221 -0.129747 -0.592334 -0.838739 -0.922724
C -1.225038 0.783517 0.911344 -0.199777 0.352969 -0.678662
C 0.173857 0.831166 0.905166 0.684841 0.496085 -0.056985
H 2.866493 -0.132501 -0.852478 -0.248058 -0.981603 0.799965
H 3.113371 0.380885 0.742716 -0.819044 0.025608 0.304542
H 2.594279 -1.279886 0.611025 -0.119121 -0.427478 -0.304974
H 0.682193 -1.732623 -1.314800 0.307267 1.362750 -0.068718
H -1.607692 -1.398762 -1.690476 0.302905 0.990122 0.435795
H -2.892800 0.047954 -0.314007 -0.492963 0.310866 0.540522
H -1.875129 1.269344 1.635623 0.346302 0.352042 0.210357
H 0.686966 1.570539 1.486267 0.287860 0.228542 1.049102
15
Properties=species:S:1:pos:R:3:forces:R:3 energy=-7381.505239385867
C 2.399311 -0.144495 0.076503 4.032436 0.940208 1.268855
C 0.945599 -0.124408 0.009381 0.183622 0.017628 0.922993
C 0.124931 -1.240104 -0.164727 0.919240 0.301617 0.170372
C -1.202016 -1.038690 -0.200262 -3.048919 -2.782495 -0.663074
C -1.861154 0.171519 -0.137335 -1.074578 -0.501048 -0.114155
C -1.095752 1.259536 0.154749 1.818148 1.847813 -0.670739
C 0.379995 1.122340 0.247739 -3.576465 0.476853 -0.099461
H 2.868366 0.171639 -0.895229 -0.301897 0.220590 0.626742
H 2.751250 0.565363 0.940074 -0.546103 -0.431538 -1.696547
H 3.097547 -0.976150 0.380844 -1.507733 -0.495165 -0.386491
H 0.416840 -2.275931 -0.206338 0.878747 -0.222638 -0.137457
H -1.805745 -1.986793 -0.340338 0.295727 1.006594 0.114555
H -2.963389 0.188320 -0.327471 0.855505 0.263102 0.301819
H -1.628155 2.243412 0.056981 0.891632 -0.466852 0.651793
H 0.946454 2.003440 0.558446 0.180639 -0.174668 -0.289205
15
Properties=species:S:1:pos:R:3:forces:R:3 energy=-7382.046749259660
C 2.450178 -0.168924 0.113563 -1.327087 -1.043362 -1.740968
C 0.881893 -0.081806 0.136649 2.673917 -1.096075 -0.110081
C 0.097983 -1.195426 0.442936 -0.454871 -0.507255 0.491184
C -1.296723 -1.084136 0.270008 0.036141 0.406163 0.406907
C -1.812219 0.139322 -0.196290 -0.614220 0.615987 0.062746
C -1.023161 1.290136 -0.430100 0.519861 -1.268188 0.067869
C 0.386468 1.110451 -0.343404 -1.402172 1.349656 0.206631
H 2.863511 -1.203595 0.020579 -0.500855 0.435485 -0.003937
H 2.684915 0.372539 -0.822709 0.485531 -0.231587 0.260673
H 2.983296 0.286296 0.904911 0.358178 0.825684 1.290499
H 0.581894 -2.123732 0.855744 -0.521000 0.823618 -0.406420
H -2.019685 -1.827916 0.655252 0.491650 -0.002450 -0.518082
H -2.901167 0.261115 -0.350755 0.373799 -0.211676 0.259970
H -1.564555 2.220593 -0.630400 0.489878 0.007938 -0.275286
H 1.132354 1.901302 -0.552835 -0.608750 -0.103937 0.008296
15
Properties=species:S:1:pos:R:3:forces:R:3 energy=-7381.155234022815
C 2.507275 -0.002638 0.289619 -0.528749 3.313898 -2.464293
C 1.015659 -0.019926 -0.058121 -1.790353 -0.332803 1.164855
C 0.178450 -1.243322 -0.070501 1.259383 2.339908 0.066143
C -1.230696 -1.189537 0.012485 0.276394 -0.184989 1.672447
C -1.919435 0.058014 0.027641 0.259203 -2.194780 0.257148
C -1.121701 1.179203 -0.200059 -2.926780 1.443510 -0.488228
C 0.240909 1.185764 -0.106315 1.277175 -0.877243 -0.177875
H 2.967518 -0.918191 0.327298 0.990283 -2.595404 0.671250
H 3.078351 0.501682 -0.550883 -0.634935 -0.596216 -0.220746
H 2.912975 0.741295 0.993682 -0.887185 -0.493218 0.998809
H 0.708056 -2.176588 0.021287 0.089797 -0.570926 0.014380
H -1.695327 -2.108764 0.489867 0.152226 0.840615 -1.121860
H -2.974202 -0.009673 0.409740 0.748597 0.717614 -0.920695
H -1.646828 2.152149 -0.474175 0.615114 -0.885052 0.858922
H 0.576338 2.205856 0.038076 1.099829 0.075087 -0.310258
15
Properties=species:S:1:pos:R:3:forces:R:3 energy=-7381.842264983427
C 2.514526 -0.109952 0.185823 0.324261 0.519073 1.594062
C 1.002325 -0.055039 0.068049 -1.599902 1.230870 -1.993557
C 0.239135 0.872936 -0.820618 2.004029 -1.919584 1.327870
C -1.147504 0.914062 -0.928738 0.146381 0.482239 -1.223712
C -1.915833 0.055554 -0.169162 1.104110 -1.388280 1.973258
C -1.213094 -0.786267 0.779523 -0.197961 1.011505 -2.146970
C 0.196443 -0.883607 0.831732 -0.461095 0.232275 2.055110
H 3.101335 -0.944895 -0.283427 -0.834864 0.528427 -0.163644
H 2.943343 0.880898 -0.102482 0.011595 -0.652957 0.067060
H 2.722564 -0.256249 1.312460 -0.056811 0.338757 -1.335554
H 0.864125 1.467988 -1.446375 0.319189 0.776384 -0.643112
H -1.602319 1.549481 -1.732728 0.321418 -0.295398 0.805711
H -3.004427 0.014079 -0.176620 -0.000442 0.102046 -0.181715
H -1.838890 -1.440819 1.322259 -0.505556 -0.803621 1.075141
H 0.675165 -1.360890 1.743835 -0.574352 -0.161736 -1.209950
15
Properties=species:S:1:pos:R:3:forces:R:3 energy=-7381.528653646176
C 2.418965 -0.058053 0.174171 -0.406525 0.490849 -0.131914
C 0.895839 0.092795 -0.024848 2.032998 -0.811996 0.725510
C 0.311185 -0.805044 -0.932623 -1.089646 1.942285 1.501295
C -1.092806 -0.787364 -0.996571 1.202038 -0.845950 -1.104696
C -1.835206 -0.021227 -0.140092 -1.262688 0.762171 1.733321
C -1.206400 0.837069 0.864609 0.972563 -2.511265 -2.382874
C 0.183237 0.821955 0.976347 0.835503 0.365264 -0.370052
H 2.431266 -0.505693 1.140134 0.592687 -0.469393 1.354106
H 2.870284 -0.822186 -0.472839 -0.004407 0.359022 -0.337231
H 3.051334 0.866727 0.244009 -0.620299 -0.495585 -0.354689
H 0.892111 -1.574093 -1.388972 0.524752 -0.238729 -0.865590
H -1.475825 -1.394087 -1.821733 -0.750176 -0.169909 0.446906
H -2.937279 -0.282497 -0.079416 1.012768 0.995911 -0.193095
H -1.762750 1.441930 1.478711 -1.660490 1.214883 1.702591
H 0.805876 1.316243 1.842276 -1.379078 -0.587558 -1.723588
15
Properties=species:S:1:pos:R:3:forces:R:3 energy=-7381.697421251290
C 2.428528 -0.198611 0.150717 0.717897 -0.903527 -0.170262
C 0.970620 -0.095480 0.016018 -2.336993 0.395596 0.757740
C 0.134111 -1.203084 -0.260440 -1.489830 1.565717 -1.005109
C -1.290135 -1.084793 -0.484560 1.171022 1.084218 0.550019
C -1.842609 0.217618 -0.219161 0.555193 -0.842933 1.349440
C -1.041596 1.232039 0.393339 0.565760 -2.650446 -2.183720
C 0.327802 1.147100 0.382317 1.228067 -1.745254 -0.227985
H 2.913507 -0.438682 -0.810450 -0.032048 -0.413155 0.045936
H 2.727541 0.831322 0.309369 0.879818 0.124098 0.875037
H 2.713658 -0.997752 0.925943 0.000543 1.363592 -0.805039
H 0.572806 -2.105826 -0.592333 0.704391 -1.263588 0.003228
H -1.816797 -2.028514 -0.817328 0.148761 1.368550 0.277835
H -2.895113 0.466360 -0.209412 -0.500207 -0.439948 -0.373871
H -1.424852 2.101694 0.764204 -1.633703 2.406939 0.789233
H 0.942376 1.996384 0.690114 0.021329 -0.049858 0.117518
15
Properties=species:S:1:pos:R:3:forces:R:3 energy=-7381.616261487142
C 2.457686 -0.249444 0.125356 0.643815 2.023663 1.999549
C 0.975599 -0.160605 0.049198 -1.375483 1.185260 -1.025477
C 0.403382 0.246214 -1.188630 -2.844783 -0.149006 2.420504
C -1.049889 0.408429 -1.231395 0.374318 -1.695434 -1.119478
C -1.891788 0.105542 -0.135206 -0.466357 0.199178 0.991632
C -1.281857 -0.087467 1.157512 -1.054492 0.469657 -1.772827
C 0.089930 -0.242454 1.175090 1.376012 -0.655451 2.537704
H 2.700967 0.017766 1.195519 0.185779 -0.607303 -0.623734
H 2.841392 -1.221061 -0.090702 0.521607 -0.911639 -0.309973
H 3.017083 0.569237 -0.422549 -0.724819 -0.939277 -0.036781
H 0.991537 0.477983 -2.046935 0.495480 0.037295 -0.692743
H -1.490920 0.421543 -2.267064 0.209982 0.496008 0.943933
H -3.044193 -0.001437 -0.137785 1.803114 0.549840 -0.579213
H -1.923406 -0.030591 2.072076 0.691732 -0.434724 -0.623436
H 0.445938 -0.473144 2.271019 0.164095 0.431934 -2.109661
15
Properties=species:S:1:pos:R:3:forces:R:3 energy=-7381.678926498013
C 2.428308 -0.130290 0.049521 1.779092 -0.192332 2.038857
C 0.957959 -0.160243 0.167622 -1.793099 -0.498261 0.006977
C 0.149395 -1.090912 -0.583986 2.538170 2.115166 1.942346
C -1.150774 -0.889618 -0.773675 -3.241822 0.651962 -0.710736
C -1.818319 0.251601 -0.238071 0.965083 -0.331006 -0.699833
C -1.106071 1.142150 0.546399 0.142673 -2.001317 0.238466
C 0.221745 0.835911 0.854718 0.526134 1.277829 -0.079332
H 2.717688 0.318668 -0.885140 0.228871 0.013800 -0.870454
H 2.806347 0.591017 0.806621 -0.037696 -0.101161 -0.168620
H 3.083529 -1.048901 0.259487 -1.244881 0.649964 -0.540352
H 0.580707 -1.914190 -1.035820 1.282416 -1.716530 -1.011519
H -1.620106 -1.604601 -1.476504 -0.391882 0.442902 0.484721
H -2.776163 0.563561 -0.555875 -1.414408 -0.164692 -0.350651
H -1.566861 1.948525 1.076455 -0.462864 0.679867 0.078612
H 0.561354 1.640455 1.543049 1.124214 -0.826191 -0.358483
15
Properties=species:S:1:pos:R:3:forces:R:3 energy=-7381.503324324986
C 2.467601 -0.348960 0.178233 -0.037110 1.612278 0.356799
C 0.938451 -0.050278 0.076045 2.069945 1.586456 0.531496
C 0.228204 1.043407 0.599212 0.094790 0.018225 0.777955
C -1.167263 1.089687 0.653889 1.363584 -0.986647 -0.652355
C -1.828273 0.106655 -0.103402 -3.580124 2.239087 2.060347
C -1.199931 -0.829334 -0.777697 3.894785 -2.558682 -2.539589
C 0.236420 -0.910504 -0.659937 -3.469566 -0.557283 -0.207167
H 2.958306 -0.209047 1.203737 -0.692493 0.248466 -1.240135
H 2.494900 -1.391695 -0.018124 0.434477 -1.341124 -0.181044
H 3.084151 0.132077 -0.660452 -0.723605 -0.225526 1.172122
H 0.836439 1.771202 1.073500 0.372671 1.027720 0.804062
H -1.696838 1.756216 1.311389 -0.214647 0.543813 -0.000186
H -2.930070 0.078440 -0.020596 0.236991 0.147046 -0.311548
H -1.552823 -1.534394 -1.546384 -0.815552 0.162815 0.675571
H 0.676233 -1.801250 -0.941282 1.065854 -1.916643 -1.246329
15
Properties=species:S:1:pos:R:3:forces:R:3 energy=-7381.756776203762
C 2.417384 -0.362423 0.206458 1.857955 -2.184571 0.756626
C 0.986986 -0.134638 0.023585 -2.273208 1.266557 -0.517632
C 0.079452 -1.125046 -0.394177 0.925086 -0.472440 -0.720975
C -1.315782 -0.963517 -0.477120 1.640433 0.354585 0.675303
C -1.859385 0.210568 0.003844 -1.416878 0.991842 -1.491013
C -1.000971 1.301719 0.309840 -0.498834 -2.724466 -0.372989
C 0.361200 1.128488 0.280671 1.150082 -0.373618 0.816841
H 2.703535 -1.444842 0.440580 -0.637513 0.809322 -0.870343
H 3.211253 0.027085 -0.429737 -0.388602 0.113625 -1.193612
H 2.799038 0.041753 1.110713 -0.136669 1.003439 1.602776
H 0.552598 -2.011168 -0.832368 -0.246853 -0.301563 0.312224
H -1.889668 -1.765209 -0.881929 -0.649469 -0.561835 -0.261051
H -2.960624 0.352334 -0.233529 1.053513 0.091229 0.928981
H -1.395136 2.157090 0.741044 -0.864617 2.007664 0.454381
H 0.924676 1.986975 0.644773 0.485575 -0.019767 -0.119516
15
Properties=species:S:1:pos:R:3:forces:R:3 energy=-7381.406606070722
C 2.539104 -0.049147 0.070861 -2.383880 0.059911 -0.223324
C 0.966490 -0.095868 0.051490 0.421887 1.436240 2.123132
C 0.205092 -0.850691 -0.803883 -0.619004 -0.371357 -1.589977
C -1.150892 -0.625521 -1.050589 -0.086566 0.653782 2.066061
C -1.848896 0.178494 -0.134111 -0.627335 -1.405930 -3.699546
C -1.171608 0.705896 0.890884 0.295733 0.993903 0.458632
C 0.194629 0.720686 0.976062 0.650272 -1.961151 -1.196364
H 2.743560 0.254203 1.112445 0.664500 -0.262136 -0.310855
H 2.900932 -1.095553 -0.195800 0.183158 1.526545 0.080709
H 2.744161 0.840480 -0.618035 0.529296 -1.416512 0.547064
H 0.601951 -1.602279 -1.445203 1.099031 -0.560213 -0.580192
H -1.731379 -1.098551 -1.805393 -0.081312 -0.642247 -0.920557
H -2.835687 0.449914 -0.489773 -0.636811 0.044569 0.818632
H -1.748107 1.244332 1.565533 -0.863716 1.260709 1.703811
H 0.495268 1.201092 1.868425 1.454747 0.643887 0.722775
15
Properties=species:S:1:pos:R:3:forces:R:3 energy=-7381.426061831379
C 2.460153 -0.333010 0.206171 -0.498618 0.921669 -0.496736
C 0.975975 -0.132485 0.051830 -2.154650 2.585161 -1.078466
C 0.170663 0.701938 0.955338 2.156798 -0.133511 1.229813
C -1.209143 0.772586 1.006698 -1.493235 -1.967134 -1.717064
C -1.858348 0.072174 -0.067289 1.500322 1.356286 1.950517
C -1.109598 -0.440299 -1.068907 -0.760240 -2.123137 -4.222105
C 0.259851 -0.559199 -1.126494 2.785465 0.170568 2.516324
H 3.209353 0.137158 -0.486504 -0.963295 -0.145090 0.076387
H 2.724692 -0.031565 1.189840 0.525788 0.281278 1.204767
H 2.546084 -1.384416 0.151528 0.757086 -1.583326 -0.074573
H 0.679152 1.287946 1.757937 0.143041 -0.633583 -0.390499
H -1.893259 1.074325 1.823274 0.960110 0.521795 -0.183164
H -2.879093 -0.121426 -0.083915 -2.066926 0.029886 0.038077
H -1.636892 -0.897481 -1.981582 0.342580 0.593335 1.238892
H 0.949352 -1.036964 -1.861615 -1.234225 0.125803 -0.092169
15
Properties=species:S:1:pos:R:3:forces:R:3 energy=-7381.853482719176
C 2.423807 -0.278246 0.169733 0.349412 -1.351553 1.773725
C 0.955630 -0.027832 0.072693 -0.503670 -0.700639 2.448715
C 0.387997 0.445003 -1.088046 -0.483151 -0.477920 0.156716
C -1.021263 0.439834 -1.221167 0.463265 1.269723 -0.939098
C -1.888472 0.213551 -0.157479 0.760412 -1.339124 0.165086
C -1.291155 -0.251929 1.045415 1.605450 0.106058 -1.401746
C 0.105697 -0.410402 1.174730 0.235445 0.143725 -0.888871
H 2.826153 0.015203 -0.780839 1.082716 0.060138 -0.398384
H 2.939061 0.153515 1.071977 -0.415956 0.597806 -0.871443
H 2.660419 -1.369746 0.441269 -0.475411 0.877326 -1.007419
H 1.120576 0.635951 -1.874850 -0.550565 0.229910 -0.498628
H -1.384542 0.707804 -2.216106 -0.329212 -0.037634 0.042643
H -2.963209 0.016162 -0.323792 0.393617 0.560547 0.111461
H -1.906883 -0.747976 1.716218 -1.312523 -0.568964 1.786971
H 0.614076 -0.958552 2.015958 -0.819828 0.630601 -0.479726
15
Properties=species:S:1:pos:R:3:forces:R:3 energy=-7382.103606085896
C 2.445172 -0.080602 0.163985 -0.445912 0.366766 -0.510495
C 0.942096 0.009987 0.054198 0.075845 -0.326474 -0.720476
C 0.271384 1.106035 -0.516481 1.083816 -0.085283 0.163025
C -1.109851 1.092229 -0.612272 -0.215132 0.864286 -0.364191
C -1.850524 0.003198 -0.185267 0.545864 -1.239276 0.890579
C -1.204641 -1.089684 0.505311 0.188260 2.391799 -1.942833
C 0.185123 -1.045449 0.580736 -0.807850 0.638666 -0.097778
H 2.573438 0.086125 1.214081 1.080327 -0.275912 0.951478
H 3.003946 -0.922006 -0.274075 -0.684239 -0.628931 0.564949
H 2.933098 0.711815 -0.362855 0.200013 1.268428 -0.303054
H 0.843471 1.979884 -0.886680 -0.212446 -0.443950 0.134102
H -1.563639 1.997995 -1.054702 -0.197427 -0.552020 0.096247
H -2.902383 -0.018783 -0.400977 -0.660040 -0.075520 0.128934
H -1.736697 -1.962011 0.777888 -0.707793 -0.844268 0.548221
H 0.676762 -1.820748 1.104695 0.756714 -1.058308 0.461292
15
Properties=species:S:1:pos:R:3:forces:R:3 energy=-7381.430608901222
C 2.408325 -0.121697 0.067962 1.738642 1.083575 2.021756
C 0.909283 0.102333 0.102636 1.463317 -0.375634 0.063672
C 0.164553 -0.720269 0.948619 -0.120602 0.422129 0.404727
C -1.200370 -0.879387 0.837179 -0.953686 3.321061 -3.025483
C -1.879510 -0.040141 -0.113026 2.741206 0.768031 -0.929684
C -1.037524 0.789372 -0.953316 -3.303050 0.689151 -1.042248
C 0.297018 0.899780 -0.860703 2.799912 -1.114615 0.076321
H 3.140731 0.809154 0.090648 -1.646574 -1.201145 0.220015
H 2.702405 -0.780660 0.969179 -0.169016 0.798669 -1.310988
H 2.737644 -0.602094 -0.845788 -0.139481 -0.598040 -0.424617
H 0.623264 -1.075276 1.843342 0.743207 -1.012890 0.426498
H -1.820650 -1.530626 1.323563 -1.134412 -1.848151 1.994339
H -2.928165 0.105330 -0.326018 -0.492640 -0.702871 0.363506
H -1.448351 1.385626 -1.810955 -0.431713 -0.489591 0.840344
H 1.023488 1.332371 -1.593030 -1.095110 0.260318 0.321841
15
Properties=species:S:1:pos:R:3:forces:R:3 energy=-7381.677643130204
C 2.406719 -0.218807 0.265960 0.702221 1.225009 -2.527919
C 0.912179 -0.045329 0.067896 1.428577 -2.946306 1.024245
C 0.120277 -1.232966 -0.012257 -0.224914 1.664110 0.043844
C -1.289808 -1.124537 -0.113424 1.929888 0.540832 -0.322539
C -1.871098 0.158093 -0.143143 3.413361 0.110094 -0.143559
C -1.005180 1.313375 -0.130414 0.340886 -3.509265 0.792171
C 0.394107 1.195286 0.053482 -1.663502 1.924938 -0.772687
H 2.830089 -0.078511 -0.850559 -0.246239 0.157684 2.243721
H 2.890199 0.525959 1.000232 -0.579301 -1.174678 -1.063002
H 2.632271 -1.262577 0.429862 0.349735 -0.394259 0.719015
H 0.704057 -2.152212 0.021461 -0.480681 -0.360881 -0.048424
H -1.794801 -2.047076 -0.293556 -0.964193 -0.546612 0.163298
H -2.904643 0.233750 -0.222437 -1.946064 0.460643 -0.141305
H -1.498556 2.193012 -0.024899 -1.261060 3.104502 -0.064278
H 1.107163 2.051260 0.082400 -0.798714 -0.255812 0.097418
15
Properties=species:S:1:pos:R:3:forces:R:3 energy=-7381.074383063636
C 2.463710 0.097756 -0.031957 -0.172623 -0.172469 3.435928
C 0.971394 -0.067066 0.088143 -0.464672 1.171346 -0.372137
C 0.237517 -0.237401 1.278815 -0.699920 -0.199839 -2.574521
C -1.145194 -0.112502 1.089562 -3.173128 0.277872 2.031366
C -1.961202 0.141295 -0.036445 3.028339 0.045475 -2.533712
C -1.107212 0.072196 -1.304872 -2.435686 0.641461 5.088500
C 0.232364 0.076879 -1.110426 2.105279 -0.295221 -0.614165
H 2.803645 -0.898555 0.228842 1.010352 -0.693931 -0.889999
H 2.928365 0.625504 -0.860089 -0.219621 -0.309519 -0.424190
H 2.812366 0.578662 0.937102 -0.244652 0.196793 -0.946509
H 0.589600 -0.596138 2.219204 0.598303 0.137658 0.763311
H -1.775394 -0.186864 2.014387 0.623798 0.070097 -0.291691
H -3.030573 0.535024 -0.036686 1.348393 -1.034807 0.164836
H -1.568583 0.111821 -2.220564 -0.944987 0.233663 -2.431764
H 0.918222 0.175421 -1.957597 -0.359175 -0.068581 -0.405252
15
Properties=species:S:1:pos:R:3:forces:R:3 energy=-7381.684995938833
C 2.504860 -0.078421 0.237277 -2.638434 -1.447143 -1.183020
C 0.941120 0.002664 0.064184 1.284022 1.407142 -1.725142
C 0.299934 0.624620 -1.057654 0.498225 -0.134769 1.525567
C -1.093889 0.617506 -1.151389 0.556621 -0.596286 -0.356230
C -1.847599 0.093005 -0.093519 -2.144911 -0.781706 0.686323
C -1.253713 -0.553923 1.032072 0.965043 1.700685 -3.300421
C 0.139260 -0.636956 0.960984 -0.946170 -0.526742 1.421089
H 2.996710 0.623163 -0.422245 0.544959 0.380984 0.275812
H 2.799794 -0.237822 1.255325 0.338314 1.058580 0.954899
H 2.691825 -1.098225 -0.109175 0.474240 -0.242566 -0.750377
H 0.836917 1.197515 -1.803780 0.454566 -0.160126 -0.266790
H -1.416507 0.849715 -2.180265 -0.814141 0.349588 0.715139
H -2.992181 0.046370 -0.101417 1.448573 0.345942 -0.346986
H -1.860475 -0.949023 1.792918 -0.622612 -0.703702 1.079599
H 0.638287 -1.246704 1.665196 0.601707 -0.649883 1.270538
15
Properties=species:S:1:pos:R:3:forces:R:3 energy=-7381.552930312557
C 2.568207 -0.191681 0.099503 -3.610916 -1.588271 -0.126226
C 0.911431 -0.012556 0.034817 2.671208 -4.330008 -1.183541
C 0.139795 -1.208650 -0.297454 -1.411021 3.641948 0.338295
C -1.277601 -1.070124 -0.450893 1.102638 0.313240 0.773566
C -1.914883 0.155811 -0.119055 0.927018 0.068629 0.830357