21
Properties=species:S:1:pos:R:3:forces:R:3 energy=-17638.094504347850
C 1.803644 -1.309124 -0.705680 0.038748 -1.902723 -0.650057
C 0.693164 0.892194 -1.794805 -1.630849 0.786192 0.218117
C 2.482465 -0.614720 -1.732446 -0.530867 0.820959 0.721252
C 1.930633 0.567985 -2.276996 0.677618 -0.823967 -0.700327
C -2.544415 2.167078 1.050274 -0.565873 0.175311 -2.029040
C 0.543333 -0.958060 -0.155549 1.417367 1.985407 -2.124875
C 0.040139 0.226945 -0.740977 0.320425 0.607234 0.378568
O -1.043398 -0.936635 1.577898 0.882277 -0.617896 -0.618510
O -0.228661 2.044600 1.415300 2.707315 0.160565 0.853629
O -0.173878 -2.951445 1.061826 0.251118 1.189490 -0.459323
C -0.233530 -1.562896 0.873128 -2.035877 -1.254426 2.320461
C -1.146727 1.669496 0.777769 -2.083723 0.893430 -0.321084
O -1.137532 0.824748 -0.321720 -0.242364 -0.261469 -0.543396
H -0.894511 -3.029903 1.728784 0.234984 -0.335699 0.021317
H 2.104074 -2.356883 -0.512456 0.445365 0.600023 0.355090
H 0.071769 1.684575 -2.211796 0.287455 0.332268 -0.072682
H 3.467808 -0.872954 -2.077818 0.374628 -0.721941 -0.006455
H 2.407509 1.112261 -3.150646 -0.500241 -0.563275 1.147523
H -2.588758 3.117875 1.648902 0.119178 -1.349424 0.058158
H -3.012605 2.421004 0.052360 0.311634 -0.179071 0.675562
H -3.069093 1.243449 1.330999 -0.478318 0.459014 0.776074
21
Properties=species:S:1:pos:R:3:forces:R:3 energy=-17637.792602946658
C 1.827619 -1.138024 -0.522980 0.517708 -1.761812 1.639901
C 1.146121 1.453683 -1.154960 0.440231 0.970800 -0.701236
C 2.558134 -0.536157 -1.510577 -1.023090 1.467410 0.129691
C 2.235878 0.838188 -1.767349 0.411662 -1.940795 -1.078547
C -3.147337 1.355193 0.472096 -0.811901 -2.173458 -0.778351
C 0.845142 -0.549844 0.239045 -1.339402 1.481955 0.009048
C 0.422550 0.767046 -0.218811 -1.234975 -1.318399 0.770299
O 0.042273 -2.524236 1.512073 0.525549 -0.097919 -0.976692
O -2.139179 0.285089 -1.437796 0.120485 -0.751784 0.548548
O -0.041408 -0.530114 2.472714 -1.222773 -0.763223 0.737210
C 0.272306 -1.329167 1.403459 -0.731475 0.384808 0.374613
C -2.025149 0.788007 -0.339924 0.466941 1.304784 -1.488817
O -0.826700 1.325289 0.109426 1.089273 -0.405681 1.513799
H -0.594338 -1.187597 3.050484 1.290615 1.358240 -0.911489
H 2.067938 -2.155868 -0.179859 0.076850 0.059835 -0.387689
H 0.799794 2.469596 -1.481105 0.247236 -0.962720 0.227418
H 3.200824 -1.245046 -2.009017 0.693222 0.614647 -0.731532
H 2.611303 1.235393 -2.698278 0.529446 0.682115 -0.049359
H -3.937860 0.573285 0.273709 0.227127 0.774120 0.529140
H -2.896401 1.371911 1.549527 -0.311419 0.830701 -0.495536
H -3.459846 2.215277 -0.157185 0.038692 0.246373 1.119582
21
Properties=species:S:1:pos:R:3:forces:R:3 energy=-17638.195202219184
C 2.290755 -0.445355 -0.009380 -0.319079 1.254057 1.346174
C 0.744897 1.873388 -0.025371 -0.466786 -0.472877 0.032885
C 2.795866 0.727612 0.543635 -0.509237 1.896138 -1.143153
C 2.014237 1.906301 0.481215 1.324685 0.715790 1.399780
C -3.495804 0.511897 -0.362889 -1.225517 -2.815446 -1.232462
C 0.922594 -0.533158 -0.283369 -0.317275 -0.054370 0.096319
C 0.167350 0.659099 -0.321087 -0.025584 -1.481666 -0.742076
O -0.544284 -2.198203 0.647576 -0.976903 -0.480112 0.353861
O -1.998341 1.602379 1.067179 0.841831 0.247952 0.559618
O 1.085687 -2.850318 -0.904370 -1.491395 0.874999 1.443909
C 0.306860 -1.897973 -0.135442 2.484403 0.101035 -1.793639
C -2.149989 0.933029 0.079633 -0.627541 0.337971 -0.412445
O -1.143667 0.486637 -0.782156 -0.186819 0.407759 0.621189
H 0.772975 -3.682674 -0.489588 0.128911 -0.271118 -0.353537
H 2.908299 -1.277057 0.137707 0.680108 -1.690989 -0.311096
H 0.192056 2.766052 -0.071010 -0.918103 1.134155 -0.150471
H 3.820893 0.891324 0.823990 0.567678 -0.537071 0.353493
H 2.324769 2.890345 0.971236 0.059969 -1.303762 -0.837670
H -4.279374 0.823765 0.344405 0.304256 0.320916 -0.247569
H -3.777322 0.727654 -1.441937 0.459389 0.100865 1.082038
H -3.538477 -0.661776 -0.329167 0.213007 1.715775 -0.065148
21
Properties=species:S:1:pos:R:3:forces:R:3 energy=-17637.259221801516
C 2.292818 -0.337396 -0.249882 2.425465 2.747451 1.544490
C 0.418594 1.574852 0.762783 2.775284 0.039389 -0.264357
C 2.711390 0.985323 0.190791 2.946105 -3.124922 -2.562184
C 1.818748 1.823957 0.717179 -1.124413 3.973516 1.352378
C -3.451361 0.916340 0.606390 0.760134 -1.029013 -2.713172
C 1.009230 -0.619361 0.052983 -2.247673 -3.812889 -2.388762
C 0.035921 0.368760 0.258956 -1.123412 -0.061381 0.857156
O -0.495877 -2.613005 0.090013 0.549209 0.649178 0.040385
O -1.993783 2.174833 -0.744842 1.233085 0.741725 -0.815031
O 1.494710 -2.821630 -1.105797 -0.881876 1.975171 1.327138
C 0.525401 -2.055263 -0.258382 0.734818 -1.243461 -1.168320
C -2.163495 1.187822 -0.099581 -1.228758 -1.439579 1.283285
O -1.314244 0.084906 0.124326 0.573476 0.309818 -0.051088
H 1.095667 -3.698326 -1.238222 -0.337708 -0.072869 0.203088
H 3.077579 -1.000532 -0.642113 -0.728202 -0.157640 0.208994
H -0.180756 2.352788 1.149399 -1.044549 0.658982 0.149017
H 3.807800 1.160893 -0.068085 -1.386854 0.497488 0.766431
H 2.130248 2.893760 1.024009 -0.280160 -1.666567 -0.289517
H -3.603206 -0.074487 0.959715 -0.248306 -0.870256 0.280249
H -3.619961 1.645734 1.280364 -0.022500 2.409162 3.322315
H -4.148537 1.303679 -0.100207 -1.343165 -0.523304 -1.082494
21
Properties=species:S:1:pos:R:3:forces:R:3 energy=-17637.723131477214
C 1.831822 -1.153450 -0.516786 -0.273568 -0.753706 1.900879
C 1.097888 1.460463 -1.252991 -0.954109 0.857582 -0.372899
C 2.308389 -0.466425 -1.593900 1.665043 -1.796011 -2.290022
C 2.020989 0.792099 -2.055343 -0.647774 0.967865 1.728366
C -2.986638 1.529214 0.314104 -2.216169 1.360392 -0.679632
C 0.831702 -0.509139 0.196603 -0.609561 0.581420 1.029329
C 0.446662 0.773839 -0.256547 -0.965330 -0.440431 2.383107
O 0.460773 -2.385772 1.617566 0.235978 -0.497719 0.036357
O -1.789366 -0.171228 -1.006251 -0.848666 0.637344 -0.140385
O -0.728070 -0.557395 2.189570 0.250613 -1.618788 -0.550772
C 0.211663 -1.221549 1.378437 -0.419908 0.595745 -0.162465
C -1.918988 0.779005 -0.281581 3.121519 -0.917915 1.118689
O -0.671293 1.349325 0.422857 -0.155717 -0.551143 -2.525827
H -1.098190 -1.388139 2.628654 0.357256 1.188362 -0.010896
H 2.225838 -2.127629 -0.078322 -0.482811 1.030425 -1.114994
H 0.682539 2.456232 -1.400087 0.331799 0.251519 -0.391477
H 2.850006 -1.063938 -2.293055 1.245960 -0.492115 -0.373638
H 2.589330 1.291159 -2.826043 -0.056024 -0.090774 -0.477055
H -3.986315 1.280092 -0.132211 0.696566 -0.066558 0.389307
H -2.988223 1.334770 1.410385 0.076550 0.533335 -0.505621
H -2.769661 2.597827 -0.006427 -0.351647 -0.778829 1.009652
21
Properties=species:S:1:pos:R:3:forces:R:3 energy=-17637.988611799461
C 1.986874 -1.312676 -0.220050 -2.667673 1.887888 0.840285
C 1.509392 1.460468 -0.466007 1.531385 2.316683 -1.449047
C 2.893475 -0.444981 -0.854717 0.601390 -1.984520 0.667875
C 2.742484 0.915008 -0.949293 -0.941751 0.903349 -0.420017
C -2.784542 2.229479 0.327834 0.712603 0.501034 2.252503
C 0.749557 -0.738868 0.372149 1.160069 -0.055171 -1.468691
C 0.567454 0.664619 0.135388 0.143358 -1.698018 1.086297
O -1.591090 -1.362253 1.146539 1.699310 0.803350 -0.038091
O -1.866175 0.798202 -1.228871 0.821292 -1.803781 -2.696792
O -0.193315 -2.912591 0.386076 1.904028 0.444804 -0.023588
C -0.438126 -1.614397 0.771564 -1.115410 -0.374622 -0.781197
C -1.685177 1.375362 -0.224749 -0.302728 1.461688 2.532732
O -0.533741 1.280803 0.642511 -1.793692 0.904319 -0.547866
H -1.051836 -3.296611 0.247597 -1.267131 -0.644334 0.195475
H 1.992554 -2.386619 -0.244333 0.613509 -0.478493 0.005629
H 1.238450 2.580120 -0.625623 0.539575 -1.879575 0.363761
H 3.821782 -0.864747 -1.247508 -0.078956 -0.210372 -0.108108
H 3.557583 1.409555 -1.553009 -1.147356 0.230802 0.870753
H -3.350773 1.552559 1.002122 -0.311344 0.068459 -0.572069
H -2.443299 2.992944 1.074852 0.029439 -0.197886 -0.747713
H -3.374054 2.677613 -0.472875 -0.129916 -0.195603 0.037871
21
Properties=species:S:1:pos:R:3:forces:R:3 energy=-17638.199144912563
C 1.638671 -1.534173 -0.760122 1.096305 -0.281655 -0.799380
C 1.025648 1.054475 -1.591043 -2.092186 -0.235498 0.080754
C 2.428889 -0.936528 -1.778775 -2.161900 0.643735 1.152031
C 2.021732 0.348157 -2.234680 1.136105 -0.702328 -0.270298
C -2.719542 1.995233 1.042153 0.375507 -0.497741 -1.031235
C 0.507102 -0.866896 -0.290831 -0.541427 0.114151 0.866179
C 0.118223 0.414484 -0.689855 1.862690 0.929966 -0.842428
O -1.202724 -0.931431 1.402889 0.670644 -0.150759 -0.240219
O -0.315092 2.016887 1.505399 3.272696 1.658923 3.595605
O 0.042879 -2.796220 1.053556 0.955781 1.460641 -1.465251
C -0.275980 -1.437832 0.769889 -1.463879 -2.176331 1.504386
C -1.262467 1.727535 0.923190 -2.148793 -1.694067 -4.691615
O -1.049765 1.018301 -0.342851 -0.646700 -0.073168 -0.609316
H -0.491633 -2.974700 1.814731 -0.956549 -0.431259 1.245954
H 1.816729 -2.541549 -0.307159 0.170350 0.851208 -0.571195
H 0.673820 2.023871 -1.906244 0.239196 0.532736 -0.376265
H 3.270482 -1.405096 -2.214048 0.853682 -0.700221 -0.454950
H 2.519773 0.738359 -3.147026 -0.126535 0.164790 0.706133
H -2.770646 2.654488 1.848258 -0.765913 1.270070 1.536374
H -3.267081 2.345648 0.146697 0.737304 0.153535 0.107730
H -3.168213 1.046357 1.253103 -0.466379 -0.836729 0.557005
21
Properties=species:S:1:pos:R:3:forces:R:3 energy=-17638.070676920783
C 2.273772 -0.487376 -0.153560 -0.790635 0.714576 -0.153590
C 0.755183 1.839513 0.244990 -2.555713 1.236901 0.270667
C 2.792597 0.755626 -0.326736 2.772415 1.989827 -0.507448
C 2.062249 1.958373 -0.085437 0.561740 -3.431310 -0.098827
C -3.513916 0.443512 -0.344834 -0.018925 -2.786037 2.287096
C 0.870195 -0.535332 0.113201 2.269305 -1.880686 -0.257088
C 0.111755 0.604287 0.242315 -0.338120 -0.668293 0.199480
O -0.831375 -2.212288 0.552356 1.231482 1.000443 -0.599335
O -1.783075 1.898083 -1.098128 0.024682 -0.121648 0.032943
O 1.246188 -2.902389 0.419678 0.942048 0.360502 -0.322632
C 0.359188 -1.868153 0.331985 -3.431412 -2.404398 1.161687
C -2.116825 0.965737 -0.387199 -0.214080 0.935277 -1.171594
O -1.243775 0.315649 0.442507 0.145928 0.871497 0.283403
H 0.635082 -3.647248 0.616033 0.157059 0.056929 -0.035538
H 2.970690 -1.316194 -0.274682 -0.644035 -0.383837 0.140320
H 0.149091 2.733872 0.455218 0.207100 -0.249867 -0.067808
H 3.904443 0.835418 -0.616975 -1.559125 0.020785 0.464747
H 2.537965 2.866162 -0.032538 1.182542 2.282734 -0.165624
H -3.771584 0.402114 0.797467 -0.043403 0.089529 -1.853163
H -4.188120 1.050442 -0.920944 -0.295559 0.468272 -0.170889
H -3.601691 -0.677580 -0.693615 0.396706 1.898804 0.563194
21
Properties=species:S:1:pos:R:3:forces:R:3 energy=-17637.374592983611
C 1.724620 -1.417916 -0.727009 -1.682878 -2.668578 3.420960
C 0.930174 1.004709 -1.521966 -0.099297 1.905588 -1.542967
C 2.472825 -0.813854 -1.639830 3.640114 0.902303 -1.554702
C 2.063974 0.425231 -2.095266 0.122384 1.396834 0.952156
C -2.793309 2.182866 1.038437 -1.310035 -1.282053 -0.969155
C 0.512614 -0.941901 -0.191730 -0.249390 -0.609462 -0.075508
C 0.118703 0.332689 -0.671160 -1.126889 -1.855671 1.497873
O -0.445469 -1.215111 1.998382 -0.479894 -0.096820 0.556034
O -0.336664 2.511864 1.018193 0.453127 0.408830 0.577737
O -0.589953 -2.987157 0.601548 -0.186007 -1.010372 -1.217480
C -0.234460 -1.756256 0.936546 1.004813 2.772714 -0.920014
C -1.280453 1.881507 0.665662 -1.666938 -1.508862 -1.221639
O -1.139399 0.811617 -0.358939 -1.135187 1.125431 1.579479
H -1.344827 -3.301606 1.130985 0.149185 0.044071 0.566068
H 2.115095 -2.264663 -0.151846 0.124439 -0.310532 -0.510929
H 0.569826 2.048214 -1.715616 0.652293 -0.754079 -0.285181
H 3.577903 -1.129745 -1.779454 -1.879886 0.214259 -0.191087
H 2.786254 1.107654 -2.510055 0.202685 0.099093 -0.906608
H -2.747388 3.232983 1.349253 -0.395246 0.066959 -0.271838
H -3.606573 1.941351 0.192254 2.128167 0.913040 1.104573
H -3.363068 1.630480 1.872924 1.734440 0.247308 -0.587771
21
Properties=species:S:1:pos:R:3:forces:R:3 energy=-17637.574426382478
C 2.021215 -1.309111 -0.204118 1.189317 0.706146 -1.221454
C 1.012329 1.125267 -1.226099 -2.962125 1.247547 1.056727
C 2.811616 -0.503447 -1.179372 -0.362145 -2.138228 1.532354
C 2.241523 0.673998 -1.617865 0.757235 0.308653 -0.988044
C -2.852598 2.291431 0.656938 0.116003 -1.907496 -1.673457
C 0.756048 -0.853099 0.152475 -0.904981 0.857787 -0.800497
C 0.168069 0.393460 -0.341087 2.995396 -2.182225 0.474246
O -1.020430 -2.389196 0.855435 0.781772 0.668905 0.408642
O -1.889195 1.688352 -1.436011 0.514814 -0.724971 1.505520
O 0.617951 -1.629369 2.321194 1.397588 0.974801 -2.300156
C -0.027073 -1.720466 1.097101 -0.272253 0.003682 0.272193
C -1.839885 1.502456 -0.206875 -2.739700 2.788401 -2.968385
O -0.955081 0.747825 0.407815 1.085048 -0.194979 0.241484
H 0.062620 -1.886992 3.013702 -1.939489 -1.307493 2.131709
H 2.319955 -2.279151 0.311097 0.209429 1.234201 -1.023511
H 0.747070 2.123192 -1.641398 -0.344945 -0.729687 0.467307
H 3.809837 -0.845815 -1.551571 -0.824137 0.221906 0.441162
H 2.647137 1.394369 -2.355259 0.694444 -0.839527 0.304530
H -2.792726 3.290008 0.309485 0.116595 1.291981 -0.664491
H -3.883605 1.936493 0.343796 0.939295 0.146553 1.065229
H -2.505368 2.319148 1.653236 -0.447163 -0.425956 1.738889
21
Properties=species:S:1:pos:R:3:forces:R:3 energy=-17638.036914907105
C 1.516170 -1.503797 -0.799988 3.494623 -0.501107 -0.463955
C 0.700342 0.949942 -1.710290 0.108556 1.574500 -1.519183
C 2.423999 -0.747712 -1.606106 -1.768079 -0.238439 0.397070
C 1.962111 0.476830 -2.111443 0.433686 0.058342 -1.366698
C -2.332831 2.695056 0.854322 1.009989 0.553949 2.050257
C 0.338467 -0.953910 -0.358878 -0.762899 -1.053877 1.625073
C -0.088206 0.286116 -0.801219 -0.334134 0.430261 0.201582
O -1.412165 -1.375854 1.245474 -1.656249 0.128635 0.525597
O -0.209763 1.710906 1.614375 0.684841 -0.043436 0.066398
O 0.539658 -2.557701 1.370385 0.639254 0.451943 -0.926975
C -0.339166 -1.624584 0.792647 1.436656 -0.982894 0.109976
C -1.077285 1.809110 0.809491 -1.843398 -0.053958 -1.779351
O -1.260878 0.895643 -0.364255 0.756301 1.058721 0.925707
H 0.157724 -3.287525 1.868940 -0.947454 0.107708 0.432064
H 1.935393 -2.478549 -0.388991 -0.955898 1.199383 -0.451414
H 0.259496 1.876580 -2.164920 0.558075 -0.635041 0.421092
H 3.402043 -1.138434 -1.832812 0.322935 -0.173699 -0.248218
H 2.533189 0.967614 -2.982119 -0.745026 -0.347836 1.552586
H -2.324445 3.294516 1.820299 0.297173 -0.464705 -1.039696
H -2.668083 3.343611 0.044705 0.550250 -0.215803 -0.485478
H -3.081594 1.963002 1.032422 -1.279202 -0.852647 -0.026433
21
Properties=species:S:1:pos:R:3:forces:R:3 energy=-17638.130512825934
C 1.993452 -1.142763 -0.399598 -0.840307 2.124938 -0.821050
C 0.798030 0.945755 -1.738705 -0.865187 1.233337 1.010790
C 2.389470 -0.809627 -1.696141 0.708344 -0.289129 -0.029498
C 1.832320 0.301919 -2.380878 0.181022 -1.487446 0.282459
C -3.109737 1.789166 0.597014 1.372867 1.295556 2.384919
C 0.957122 -0.368738 0.231333 -1.336060 -0.172005 -0.173998
C 0.275827 0.702891 -0.419163 2.261524 -1.621729 -2.383343
O 1.348710 -1.700092 2.081111 0.022077 -0.783614 1.068628
O -2.312200 -0.129219 -0.634989 0.554495 1.534831 1.067458
O -0.804862 -0.860169 1.979703 2.255502 -1.123824 0.299597
C 0.550140 -1.023572 1.479559 -1.565953 0.683727 1.089748
C -2.069638 0.915326 -0.027317 -0.542479 -1.965434 -1.685654
O -0.773240 1.484270 -0.006434 -0.396222 -0.170101 0.976320
H -0.744397 -1.487090 2.782044 -0.296596 1.088253 -1.173684
H 2.431250 -1.903896 0.222542 0.208151 -0.441208 -0.115124
H 0.351485 1.781508 -2.227899 -0.534516 0.714482 -0.564781
H 3.169526 -1.429862 -2.162965 -0.170694 0.246430 0.006821
H 2.116368 0.523341 -3.437989 -0.198175 0.018964 0.900237
H -3.838490 1.227287 1.195038 0.064541 -0.409848 -0.383366
H -2.586641 2.469861 1.410413 -1.007935 -0.743036 -1.806456
H -3.652955 2.340250 -0.177177 0.125601 0.266855 0.049979
21
Properties=species:S:1:pos:R:3:forces:R:3 energy=-17637.815059167147
C 2.239667 -0.270453 -0.121500 -0.719613 0.075255 0.152489
C 0.718129 2.027907 -0.122216 1.829591 -2.371245 0.582973
C 2.836124 0.984558 -0.368009 2.746068 -4.100833 0.253365
C 2.154335 2.089096 -0.269733 -5.401504 1.412428 0.351438
C -3.455418 1.093234 -0.203841 -2.951517 -0.975040 -0.879602
C 0.835531 -0.381767 0.213524 2.180755 -0.409623 -1.214511
C 0.093055 0.797025 0.145134 -1.051108 0.212361 -0.059156
O -0.735337 -2.038950 0.994209 -3.602521 -0.209132 0.430829
O -1.832049 -0.223752 -1.517248 -1.193929 0.698152 1.192844
O 1.318388 -2.666496 0.628784 1.158821 0.404394 -1.069851
C 0.318318 -1.738284 0.551154 2.552201 0.861938 0.777027
C -2.203098 0.404663 -0.520958 1.927863 -0.460816 -1.790920
O -1.337225 0.794479 0.441957 2.731150 0.781622 0.804583
H 0.829518 -3.471654 0.807769 -0.296562 -0.908919 0.372313
H 2.878362 -1.159916 -0.125939 -0.341459 0.082404 0.016977
H 0.142032 2.869786 -0.010201 -1.358518 2.248190 0.055863
H 3.928714 1.094957 -0.480885 -0.297809 -0.528650 -0.074916
H 2.651160 2.982575 -0.209710 0.982447 2.614548 -0.243844
H -3.785788 1.039027 0.828167 0.699631 0.340675 0.712086
H -3.440650 2.150350 -0.559194 -0.078314 -0.660835 0.096220
H -4.291393 0.480069 -0.645147 0.484327 0.893125 -0.466208
21
Properties=species:S:1:pos:R:3:forces:R:3 energy=-17637.929039625818
C 2.223129 -0.214649 0.426394 -1.379747 0.403707 0.954271
C 0.882932 1.798269 -0.950958 0.768351 0.132606 -0.294119
C 2.814395 1.038650 0.318372 0.174366 0.672028 -1.689440
C 2.194647 2.029928 -0.496748 -0.018953 0.541502 1.214477
C -3.373280 0.696289 -0.332279 0.528588 -1.782581 -0.189144
C 0.821243 -0.417270 0.159108 1.546605 1.028340 -1.107841
C 0.234848 0.640974 -0.531646 -2.490712 0.190677 -1.125600
O -0.962875 -1.952991 -0.379523 1.882766 -0.311361 1.029047
O -1.596674 0.412821 1.364200 -1.017630 0.130861 -0.473677
O 0.873999 -2.616444 0.788821 0.840676 -1.523874 0.705693
C 0.139987 -1.722156 0.163784 -2.270346 0.868148 -1.209672
C -2.045894 0.528545 0.243382 2.522813 0.335960 -0.673599
O -1.187397 0.589914 -0.922468 2.175610 0.339014 1.588679
H 0.433353 -3.479214 0.670608 -0.142780 -0.185581 0.073560
H 2.750744 -0.980386 0.936819 0.543042 -0.933108 0.376097
H 0.410158 2.405333 -1.737115 -0.082048 0.158767 0.647868
H 3.861916 1.258671 0.577008 -0.347393 -0.455422 0.327371
H 2.694506 3.046094 -0.531052 -0.567421 -1.140606 -0.564785
H -3.247401 0.760478 -1.387213 -0.092136 -0.409802 -1.108058
H -3.917229 -0.179535 -0.033499 -1.061163 -0.288101 0.175749
H -3.757362 1.613562 -0.081246 -1.512487 2.228827 1.343123
21
Properties=species:S:1:pos:R:3:forces:R:3 energy=-17637.878979674497
C 2.316354 -0.358022 0.274042 -1.640807 -0.894623 -0.101771
C 0.856940 1.784641 -0.746693 0.280873 -0.842651 -0.542368
C 2.862087 0.890284 0.053287 2.517118 -0.766300 -0.773118
C 2.229135 1.934860 -0.595163 -2.096162 0.338984 0.959765
C -3.508599 0.823144 -0.491214 -0.288289 1.041919 -0.306006
C 0.924658 -0.549526 -0.064197 1.420843 -0.900000 0.593050
C 0.232524 0.524719 -0.540104 -0.177699 2.268616 -0.112743
O -0.768297 -2.350624 -0.203679 0.247698 0.367550 -0.193221
O -2.038843 1.022619 1.266340 1.621172 -0.007768 1.347654
O 0.958536 -2.419153 1.211329 0.653449 -1.219352 1.461084
C 0.261044 -1.856885 0.234383 -0.753351 0.846982 -0.573037
C -2.151134 0.759600 0.111742 -0.096360 -0.421578 -0.803483
O -1.086868 0.456468 -0.850369 -2.523138 0.081334 0.338219
H 0.424137 -3.179846 1.511452 0.066078 -0.280823 -0.023563
H 2.834364 -1.263182 0.692512 -0.104157 1.219448 -0.403733
H 0.319382 2.607471 -1.171547 -0.772669 0.347270 -0.161368
H 3.943082 0.945864 0.081649 0.466374 0.133339 0.638140
H 2.580805 2.953383 -0.757305 0.760796 -0.279241 -0.074784
H -3.463482 0.618516 -1.555973 -0.726119 -1.335954 -0.234311
H -4.355289 0.547400 0.241772 1.333520 -0.206163 -1.467345
H -3.622855 1.907603 -0.621404 -0.189171 0.509009 0.432941
21
Properties=species:S:1:pos:R:3:forces:R:3 energy=-17637.933095578857
C 2.156584 -0.221530 0.382565 -2.520938 -3.697648 0.696175
C 0.921318 1.836064 -0.833723 -0.441379 0.065764 -0.369103
C 2.814897 0.940875 0.400955 1.505991 2.538059 -1.837993
C 2.221830 2.011246 -0.373746 -0.631760 -1.929595 1.332823
C -3.525888 0.603060 -0.187188 -2.119279 0.818273 1.051816
C 0.792184 -0.457677 0.007836 -0.170017 2.180299 -1.197482
C 0.197762 0.682465 -0.599260 -1.161082 -1.579176 0.550774
O -0.881499 -2.235403 -0.406811 1.096685 0.682337 0.886407
O -1.539789 0.661647 1.235361 -1.750461 0.467173 -0.714511
O 1.000697 -2.574725 0.863434 -0.808927 -1.275280 0.245373
C 0.143668 -1.803752 0.130974 0.074953 0.195879 -0.901795
C -2.064829 0.707538 0.118679 2.095082 -1.103536 1.128684
O -1.194380 0.704354 -0.973910 0.208431 0.234385 -0.349367
H 0.580413 -3.471004 0.887011 0.265523 0.371226 0.018421
H 2.474597 -1.197569 0.721086 1.359514 0.209152 0.568918
H 0.327978 2.525604 -1.426677 0.370779 0.748203 0.059466
H 3.893827 0.970235 0.703729 -0.989156 0.182984 -0.050200
H 2.670288 2.950913 -0.495457 0.954902 1.296498 -0.245706
H -3.951703 0.494307 -1.219267 0.944528 0.542123 0.527890
H -3.987422 -0.242984 0.361557 0.763142 -0.246228 -0.078550
H -4.080158 1.426575 0.424561 0.953470 -0.700891 -1.322041
21
Properties=species:S:1:pos:R:3:forces:R:3 energy=-17638.094200099087
C 2.177081 -0.347544 -0.223940 2.720449 1.324344 0.743358
C 0.946771 2.050263 0.588818 -0.808780 -1.317039 -0.452395
C 3.030739 0.839599 -0.109217 -2.932604 -1.204472 0.071338
C 2.349094 1.996845 0.288854 -1.294134 -0.285818 0.304247
C -3.447231 0.523737 -0.044524 -0.759792 -0.474068 -0.780112
C 0.871012 -0.375965 0.187499 -1.428583 1.080589 0.089214
C 0.156283 0.859029 0.531397 3.899532 -0.154099 -1.163390
O -0.776389 -1.851644 0.988342 0.739500 -0.998961 -0.925219
O -1.694243 -0.104344 -1.468261 1.209075 0.855287 1.288443
O 0.553516 -2.444375 -0.828741 1.221892 1.132249 0.018563
C 0.142143 -1.669195 0.183596 -1.079304 1.768931 0.978581
C -1.963584 0.437810 -0.397599 -2.655187 -1.214015 -1.715690
O -1.181589 0.928266 0.586519 -0.649038 0.514897 0.790374
H 0.018897 -3.207455 -0.835898 -1.486896 -2.251116 -0.037530
H 2.667494 -1.292833 -0.473962 -0.148784 0.095349 -0.149540
H 0.396585 3.013434 0.737610 0.678148 -0.673103 -0.008464
H 4.075459 0.748738 -0.359227 0.331659 0.313727 -0.061739
H 2.757471 2.972694 0.365961 1.176576 0.809072 -0.043571
H -4.018957 0.793996 -1.013692 0.777908 -0.523332 1.473446
H -3.755080 -0.513086 0.302302 0.262577 0.853256 -0.540178
H -3.742181 1.190460 0.765283 0.225787 0.348324 0.120264
21
Properties=species:S:1:pos:R:3:forces:R:3 energy=-17637.947891781998
C 2.237188 -0.340383 -0.277083 -0.899412 1.933351 0.669876
C 0.688855 2.016411 -0.053836 -1.527593 1.499161 -0.074808
C 2.795534 0.974962 -0.276064 1.638466 -2.599859 -1.320553
C 2.064412 2.106693 -0.299935 -1.500591 3.010553 -0.632841
C -3.491512 0.950615 -0.251485 0.692390 -0.338862 -0.184890
C 0.816832 -0.424901 0.002948 2.501898 -1.104901 1.074424
C 0.133585 0.767255 0.161882 -1.713658 0.415621 0.961207
O -0.861076 -1.911479 0.905094 1.301482 0.123289 0.471235
O -1.690311 -0.149011 -1.467345 0.244749 -0.190571 -0.755704
O 1.282404 -2.693852 0.669913 0.641992 2.117980 -0.687047
C 0.318034 -1.691313 0.626049 -1.604266 -0.981212 -1.490881
C -2.073261 0.434576 -0.498649 -1.169736 0.723375 1.850152
O -1.255845 0.795072 0.606741 1.202576 -0.069820 -1.811604
H 0.973698 -3.367303 1.253285 -0.897987 -1.333409 0.896975
H 2.845987 -1.229369 -0.439381 -0.080738 0.069712 0.243310
H -0.093858 2.880259 -0.018389 1.735252 -1.210883 -0.103007
H 3.847472 1.171238 -0.481609 0.301694 -0.687307 0.009183
H 2.537966 3.084891 -0.683579 -0.677692 -1.308542 1.072941
H -3.793783 1.109520 0.768818 0.484622 0.409582 0.816437
H -3.628400 1.858113 -0.834420 -0.062202 0.314479 -0.147886
H -4.191899 0.219853 -0.583480 -0.611246 -0.791737 -0.856518
21
Properties=species:S:1:pos:R:3:forces:R:3 energy=-17637.414253900792
C 2.124350 -1.050621 -0.240086 -1.683857 -0.459746 1.260279
C 0.962503 1.093932 -1.603112 -1.852699 3.140315 -0.887192
C 2.694719 -0.436430 -1.300520 2.613832 -1.584117 -3.103577
C 2.093788 0.533577 -2.119867 0.427026 0.780939 0.434249
C -2.949066 1.408394 0.805111 -3.716926 -0.895037 2.838816
C 0.838173 -0.526789 0.192921 1.824584 -1.418303 2.208031
C 0.408311 0.622983 -0.385679 -1.494039 0.909048 -2.058319
O 0.764204 -2.222717 1.783425 -0.381590 -1.210568 1.805117
O -2.341658 0.316558 -1.265260 0.375981 -0.252558 1.534577
O -0.881307 -0.548321 1.966306 1.411120 -0.930785 -0.273322
C 0.256173 -1.189920 1.458291 -0.170879 1.863338 -2.906471
C -2.040854 0.828425 -0.195308 0.365560 1.476231 -2.626947
O -0.712538 1.272087 0.087347 -0.784276 0.056669 0.739266
H -1.172942 -1.149269 2.664194 -0.353199 -0.322963 0.648532
H 2.580294 -1.969424 0.228383 -0.593353 1.114483 -0.328689
H 0.481373 2.068357 -2.156039 0.887838 -2.478717 1.500766
H 3.593543 -0.947562 -1.766740 -0.573447 0.658263 0.770616
H 2.530969 0.995164 -3.033317 -0.024787 -0.733192 0.569257
H -2.573427 2.114944 1.547427 0.856620 -0.183080 -0.099226
H -4.011430 1.851795 0.627618 1.774435 -0.616464 -1.261790
H -3.375285 0.514640 1.439586 1.092056 1.086245 -0.763974
21
Properties=species:S:1:pos:R:3:forces:R:3 energy=-17638.134017658060
C 2.219537 -0.316850 0.167873 0.431997 -0.471754 0.791682
C 0.817447 1.888324 -0.439209 1.861367 1.550953 -1.015407
C 2.845778 0.945124 0.161297 0.798624 -1.648030 0.653269
C 2.203598 2.090930 -0.219879 -3.030488 -2.205315 -0.035117
C -3.406405 0.701940 -0.445326 -1.048994 -0.932436 -1.499514
C 0.859138 -0.501693 -0.144674 1.760212 -1.487536 0.489635
C 0.218635 0.632622 -0.510335 -1.234562 2.930510 0.046768
O -1.005688 -2.012764 -0.017727 0.805195 0.125824 0.170514
O -1.817833 0.618502 1.286400 0.693908 -0.540463 0.562736
O 1.061529 -2.782608 0.568016 -0.234984 0.022202 0.596747
C 0.198548 -1.800771 0.118087 -1.097366 -0.734138 -0.231588
C -2.056705 0.577034 0.106558 -0.053853 1.748153 1.082536
O -1.089029 0.733925 -0.887568 -1.344096 -1.016865 -0.393321
H 0.541695 -3.457818 1.086884 0.183511 0.627792 -0.845036
H 2.725214 -1.231723 0.553294 -0.001423 0.866987 -0.254070
H 0.341623 2.837336 -0.698201 -0.897703 -0.530405 -0.104613
H 3.792229 0.998197 0.656583 1.088610 -0.032221 -0.168965
H 2.593292 3.048386 -0.350422 0.977559 1.576054 0.192819
H -3.418234 -0.113438 -1.215490 -0.779819 0.404436 0.365261
H -4.261970 0.695296 0.266748 0.836127 -0.523759 -0.116181
H -3.523321 1.633804 -0.999152 0.286180 0.270011 -0.288154
21
Properties=species:S:1:pos:R:3:forces:R:3 energy=-17638.098826621073
C 2.308891 -0.391682 -0.259482 -1.597839 0.180272 -0.207782
C 0.859533 1.929911 0.260653 -0.804205 0.590012 1.106138
C 2.973261 0.826542 -0.190488 1.752978 0.194549 0.102794
C 2.228775 1.970311 0.165189 0.639644 -0.308971 -1.338491
C -3.516403 0.654578 0.263544 0.473104 0.823770 -4.061394
C 0.873222 -0.422218 -0.061395 2.194762 -1.966524 1.081311
C 0.175949 0.710492 0.279205 -0.929702 0.803040 0.134283
O -0.859549 -1.993152 -0.414443 0.870416 -0.047955 0.452363
O -1.746304 0.700140 -1.425798 0.067641 0.506733 -2.329393
O 0.849701 -2.804463 0.831451 -0.129622 1.572438 -0.803096
C 0.252323 -1.774891 0.080037 -1.918733 -0.529511 -0.427231
C -2.099276 0.744325 -0.296882 -1.120929 -0.836402 1.522359
O -1.188354 0.676014 0.729199 1.488825 0.391507 0.291573
H 0.109221 -3.445455 0.757615 0.214916 -0.355622 0.128455
H 2.690663 -1.378155 -0.525734 0.689948 0.297022 0.089575
H 0.351488 2.875744 0.494634 -0.194355 -0.374315 -0.085600
H 4.115306 0.971266 -0.358946 -1.932368 -0.577883 0.254076
H 2.712210 2.936116 0.138829 0.241275 0.306969 0.250448
H -3.647214 1.220869 1.105169 -0.468736 1.878151 2.204736
H -4.255716 0.849604 -0.570957 0.721116 0.176082 0.901579
H -3.668819 -0.326930 0.532907 -0.258136 -2.723360 0.733298
21
Properties=species:S:1:pos:R:3:forces:R:3 energy=-17637.581506913943
C 2.176128 -0.254119 0.507932 -1.240841 -3.437890 1.019651
C 0.928740 1.676141 -1.075325 -1.754693 -0.127673 -0.692926
C 2.842044 0.759938 0.031433 3.572026 4.985010 -1.211520
C 2.279297 1.744161 -0.847264 0.733930 1.164867 0.046917
C -3.397932 0.352786 -0.609198 -0.697511 -0.296834 -2.033650
C 0.857646 -0.478309 0.088184 0.248158 0.017259 1.190952
C 0.202183 0.572408 -0.518831 -0.037320 1.043332 -2.277475
O -0.867353 -2.115382 0.163128 -1.283748 0.113804 -1.156097
O -1.870561 1.478192 1.029416 -0.680915 -0.856086 -1.152026
O 0.931251 -2.632107 1.420559 0.022699 1.018857 -1.568292
C 0.229040 -1.721096 0.452355 -0.287910 -2.687993 2.588032
C -2.141389 0.871642 0.011908 1.263210 -0.285698 -0.496573
O -1.093258 0.498785 -0.974382 -1.209850 0.136796 1.429759
H 0.440269 -3.499800 1.326510 0.265592 1.205628 0.045788
H 2.574260 -1.047947 1.146993 0.331670 0.324192 -0.023887
H 0.275932 2.324792 -1.772277 1.323731 -0.645408 1.181451
H 3.861467 1.078714 0.365060 -0.506995 -0.904064 -0.125137
H 2.896054 2.641322 -1.245758 -0.849519 -1.638715 0.632524
H -3.491770 -0.744142 -0.733233 1.209432 0.078122 -0.110916
H -4.308420 0.469567 -0.091372 -1.042404 1.199864 1.321966
H -3.588910 0.772871 -1.666784 0.621257 -0.407371 1.391459
21
Properties=species:S:1:pos:R:3:forces:R:3 energy=-17637.900849977355
C 1.665560 -1.307550 -0.756367 0.561114 2.212082 1.059414
C 1.530274 1.407568 -0.346616 0.545258 -2.174931 0.656356
C 2.855848 -0.535116 -1.041511 -4.484463 -1.169259 1.258860
C 2.714492 0.802802 -0.743961 0.670872 1.222777 -1.500671
C -2.888683 1.527793 0.566759 0.249235 0.291161 0.719540
C 0.557375 -0.711020 -0.070649 -1.000360 -2.966548 0.531864
C 0.477570 0.648640 0.115894 0.701706 0.343981 -0.523309
O -1.672442 -1.530606 0.952177 -0.024391 0.827847 -0.699947
O -1.467962 1.670177 -1.381301 0.053344 -0.084784 -0.111906
O 0.132517 -2.766076 1.092730 0.322630 -1.806263 0.133737
C -0.493373 -1.675473 0.663762 0.463120 1.510601 -0.630311
C -1.638486 1.537305 -0.195592 0.537078 0.314546 -0.052897
O -0.588033 1.262699 0.706096 -0.380234 -0.053027 0.119435
H -0.612420 -3.354990 1.411926 0.733902 0.497631 -0.041464
H 1.597163 -2.337348 -0.973938 0.134531 -1.313826 -0.159758
H 1.459119 2.415460 -0.187707 0.033316 2.805333 0.133294
H 3.628485 -1.076673 -1.480400 1.789711 -0.332512 -0.793233
H 3.452940 1.492107 -1.122379 0.738871 0.271332 0.220126
H -3.672746 1.581677 -0.160843 -0.967349 0.854773 -0.143432