21
Properties=species:S:1:pos:R:3:forces:R:3 energy=-17638.102401110824
C 2.181094 -0.859717 -0.191968 1.317849 -0.826231 -0.152291
C 0.479619 0.690613 -1.840346 -1.245487 0.128261 1.077161
C 2.496357 -0.506403 -1.490214 2.408515 -1.584445 0.204293
C 1.650141 0.116573 -2.327202 -1.105524 1.240374 -1.239433
C -2.978730 2.052905 0.753805 0.599480 1.009150 -3.659942
C 0.915720 -0.566487 0.279057 0.012133 2.745611 -2.358463
C 0.124944 0.397953 -0.510557 0.729559 -0.649253 1.107885
O 1.515733 -1.694537 2.224152 0.083006 -0.022283 0.463287
O -2.480854 0.496734 -1.151213 0.388618 2.081400 2.565319
O -0.657906 -1.280783 1.799635 -0.826135 0.943904 -1.064751
C 0.661268 -1.178957 1.520851 -0.893844 -1.164283 2.216117
C -2.123206 1.193399 -0.161272 -0.712578 -2.467261 -2.515128
O -0.800266 1.193099 0.232154 0.139870 -0.450688 -0.364443
H -0.789611 -1.745247 2.619568 0.145340 -0.701970 1.161919
H 2.927929 -1.444821 0.436299 -1.189206 0.674619 -0.708368
H -0.205090 1.340741 -2.409803 0.482096 -0.241274 0.044388
H 3.445031 -0.846979 -1.926531 -0.027411 0.060159 0.280070
H 1.959623 0.228281 -3.358720 -0.146455 0.246822 -0.333348
H -3.995193 2.061539 0.375441 -0.424504 -0.493159 0.236259
H -2.837564 1.765524 1.735407 0.145082 -0.392243 2.360641
H -2.637016 3.084830 0.526924 0.119597 -0.137210 0.678827
21
Properties=species:S:1:pos:R:3:forces:R:3 energy=-17637.918296332038
C 2.256913 -0.834705 0.050263 -0.755826 -0.995300 1.557872
C 1.061079 1.171430 -1.600734 0.357471 -0.871673 1.331575
C 2.936977 -0.399221 -1.085461 -1.389276 -0.131972 1.584681
C 2.292092 0.539253 -1.851508 0.775896 1.827469 -4.001177
C -3.128656 1.776937 0.315247 -0.598766 -0.311484 -0.534689
C 0.948694 -0.357214 0.353836 0.019102 0.310302 -1.496730
C 0.417516 0.690603 -0.459604 -2.409036 0.493892 0.955601
O -0.675374 -0.567588 2.080469 -1.969373 0.857030 1.469972
O -2.274484 -0.308948 -0.749794 -0.644266 1.460148 0.687139
O 0.349659 -2.428775 1.277384 0.230650 -0.357530 -0.491663
C 0.055583 -1.082554 1.302567 2.147809 -0.965166 -0.130940
C -2.154626 0.805487 -0.239957 2.620144 -1.144251 -1.332758
O -0.895074 1.372484 -0.050256 2.307954 -0.612573 -0.704361
H -0.132416 -2.977244 1.934732 -0.197745 0.750418 -0.009618
H 2.650797 -1.622391 0.782171 -0.312752 0.958174 -1.277192
H 0.669529 1.983538 -2.219984 -0.013372 -0.299612 0.105630
H 3.862060 -0.866651 -1.285249 1.170848 -0.179535 -0.665461
H 2.739698 0.841743 -2.890334 -0.388004 -0.498868 1.873559
H -3.445945 2.627858 -0.346099 0.525286 -0.703464 0.443200
H -3.932056 1.088267 0.451327 -1.540253 -0.052490 0.388801
H -2.760778 2.083997 1.286717 0.063508 0.466485 0.246559
21
Properties=species:S:1:pos:R:3:forces:R:3 energy=-17637.802871518394
C 2.255197 -0.308242 0.078623 -2.610578 -1.482922 0.241272
C 0.553246 1.286352 -1.288061 -0.778784 -0.499376 -0.055423
C 2.758757 0.615723 -0.797954 1.229107 0.198406 0.215664
C 1.882654 1.529293 -1.420146 1.337970 -0.189421 0.075945
C -3.499823 0.902580 -0.398836 1.216134 0.784884 -0.788310
C 0.824032 -0.580346 0.197216 1.739854 0.168274 -0.680505
C -0.005551 0.231271 -0.618184 0.569686 -2.235783 2.861278
O 0.976769 -1.979185 2.170567 -0.851848 0.038197 -1.676384
O -1.510621 2.102637 0.571189 0.207523 0.768588 0.410963
O -0.285850 -2.666553 0.411179 -0.726689 0.458645 -1.669368
C 0.485314 -1.803696 1.037317 1.744447 1.914465 1.755730
C -2.038674 1.196701 0.003215 -2.056246 -0.775393 -0.690002
O -1.391389 0.052151 -0.464310 1.420114 0.593034 -0.772348
H -0.426606 -3.383157 1.010728 -0.320225 -1.535351 1.173137
H 2.875035 -1.003824 0.623357 0.488765 -0.061262 0.151942
H -0.176250 1.874609 -1.719894 -1.254346 1.864336 -1.221187
H 3.863258 0.499168 -0.887658 -0.621133 1.005904 -0.308630
H 2.175292 2.446653 -1.933065 0.361018 -0.278783 -0.189150
H -4.122690 0.767781 0.443038 -0.620672 -1.012263 1.344662
H -4.069381 1.680464 -0.903663 0.557880 0.742208 -0.399969
H -3.330401 0.085001 -1.097879 -1.031977 -0.466389 0.220684
21
Properties=species:S:1:pos:R:3:forces:R:3 energy=-17637.731684564224
C 2.254430 -0.301521 0.033721 0.559196 -1.184192 0.561937
C 0.784682 1.941211 0.525198 4.656410 1.337155 -0.962892
C 3.002275 0.885865 0.149390 -2.627295 -0.584589 0.386550
C 2.190626 2.010756 0.286516 1.108968 0.687531 0.745047
C -3.443370 1.180777 0.122234 0.419660 -1.908621 -0.002117
C 0.866589 -0.437710 0.193131 -0.746030 -0.221911 -0.443790
C 0.131510 0.785669 0.500758 0.404853 -3.219040 -0.930884
O -0.695960 -2.293821 0.674532 0.295041 -0.515600 -0.578318
O -1.809283 -0.053582 -1.340611 0.304598 -0.012423 0.199910
O 0.811509 -2.480565 -1.151376 -1.255421 -0.189154 1.558288
C 0.197023 -1.874508 -0.025424 1.260088 2.294866 -0.387881
C -2.052306 0.534338 -0.315102 -2.933107 0.884809 -0.019207
O -1.209506 0.900160 0.666814 -0.238558 -0.395971 0.960999
H 0.370868 -3.367092 -1.243449 0.247676 0.541361 0.056666
H 2.839155 -1.228549 -0.024589 -0.235956 0.006677 -0.286072
H 0.493089 2.933180 0.600692 -2.056419 1.547060 0.454064
H 4.046489 0.792694 0.355118 0.854042 0.437758 -0.488418
H 2.697562 3.005810 0.337728 -0.568365 -0.542406 0.009687
H -3.763963 0.741062 1.138509 0.430086 0.573606 -1.374983
H -3.253805 2.253023 0.250181 -0.282009 0.016149 -0.115400
H -4.189978 0.920333 -0.671465 0.402541 0.446936 0.656814
21
Properties=species:S:1:pos:R:3:forces:R:3 energy=-17637.939477248434
C 2.160716 -0.947396 -0.234220 -1.107719 1.575756 -2.619546
C 1.025778 1.338165 -1.506354 2.471486 -1.067463 0.303327
C 2.829926 -0.379017 -1.348395 -2.074782 1.644603 -0.312916
C 2.269164 0.793186 -2.032280 -0.692248 -1.551897 2.834206
C -3.162165 1.825860 0.217044 -0.973810 0.327298 -1.749881
C 0.844457 -0.543140 0.102652 0.380319 0.465561 0.963281
C 0.383399 0.735628 -0.411812 -1.143821 -1.169632 -0.494623
O 0.230335 -2.623200 1.388513 0.215171 2.791444 -0.621028
O -2.210342 -0.349415 -0.213072 -0.799867 -1.746127 -0.518431
O -0.443638 -0.530783 2.077203 0.444131 -0.373917 -0.191784
C 0.188293 -1.384491 1.208145 -0.035974 -0.745935 -0.060485
C -2.119234 0.820532 -0.051670 2.424876 0.714761 0.867139
O -0.813106 1.441052 -0.043348 0.254366 -0.300302 -0.025476
H -0.671485 -1.111175 2.817575 -0.468827 -0.249580 0.535564
H 2.608018 -1.787508 0.191482 0.423017 -1.578910 0.955802
H 0.656699 2.309547 -1.764795 -0.253519 0.509478 -0.620563
H 3.653961 -0.922432 -1.778697 0.724938 0.145636 0.016230
H 2.913963 1.260865 -2.759867 -0.297459 0.338367 -0.569987
H -2.739719 2.852412 0.157074 -0.601354 -0.473302 -0.026674
H -3.954881 1.563430 -0.561696 0.842230 0.900335 0.363029
H -3.758670 1.653877 1.098694 0.268846 -0.156173 0.972815
21
Properties=species:S:1:pos:R:3:forces:R:3 energy=-17637.892659026737
C 2.369679 -0.314123 -0.171188 -1.430292 -2.383434 -2.231364
C 0.720600 1.733419 0.672564 -0.596033 0.410976 0.390382
C 2.922540 0.924192 0.034667 -2.463454 0.681272 1.801214
C 2.126688 1.952375 0.636539 -1.009611 -0.882874 -0.631306
C -3.471032 0.223712 -0.034816 -2.910448 0.972521 -1.767116
C 0.955063 -0.597245 -0.053970 0.880587 1.899507 -0.166300
C 0.105883 0.518087 0.218242 2.114689 -0.467275 0.930194
O -0.572014 -2.413674 0.445220 0.635439 0.480063 0.033754
O -2.124800 2.202813 -0.470973 0.127104 0.141656 -0.254175
O 1.077701 -2.740332 -1.033588 0.947889 0.490059 -0.167526
C 0.400373 -1.954093 -0.152118 -0.962919 -0.778054 -0.083913
C -2.248597 1.054925 -0.140602 0.506700 -0.887323 1.193474
O -1.208702 0.187807 0.274211 -0.531875 0.963814 -0.094824
H 0.801418 -3.637582 -0.812098 -0.364305 -0.710746 -0.088334
H 2.929676 -1.130250 -0.751955 -0.317454 0.967868 1.406432
H 0.037111 2.449023 1.199873 0.660991 -0.323770 -0.727840
H 3.937117 0.898123 0.173637 2.884713 0.620720 -0.336944
H 2.553023 2.889389 1.053210 -0.217315 -0.613932 -0.291113
H -4.376204 0.930132 0.022209 1.089534 -0.750957 0.684209
H -3.699775 -0.082016 -1.103014 0.518842 -0.436586 0.776413
H -3.541248 -0.645396 0.653549 0.437217 0.606494 -0.375318
21
Properties=species:S:1:pos:R:3:forces:R:3 energy=-17637.739153026359
C 1.958474 -1.150772 -0.381436 0.922910 1.107021 -0.958763
C 0.769162 1.174415 -1.214242 -1.859298 -1.170234 1.087442
C 2.442494 -0.522283 -1.595118 -1.799885 0.075833 2.386254
C 1.802443 0.691761 -1.947716 1.615750 -0.195611 -0.891565
C -3.134144 2.085090 -0.085869 0.709913 2.747546 0.806181
C 0.769598 -0.690975 0.347183 1.557244 0.868382 -2.200180
C 0.101964 0.446409 -0.192318 1.731250 0.286662 0.417682
O 1.277372 -2.316310 1.889847 0.963275 -1.703796 0.845457
O -2.148055 0.409204 -1.494011 -0.240115 -2.712505 -3.816682
O -0.400703 -0.930496 2.458245 -0.274425 0.071764 -0.725977
C 0.600582 -1.370160 1.602270 -1.648243 0.092164 1.086265
C -2.108753 1.118842 -0.586532 0.194300 2.592126 4.249407
O -0.989569 1.099142 0.372214 -0.528067 -0.518989 -0.884521
H -0.646294 -1.712326 3.001465 0.432930 0.289491 0.064132
H 2.709838 -1.849945 0.082427 -1.369612 0.266090 -0.262862
H 0.288546 2.094040 -1.413873 -0.274713 1.231677 -0.603090
H 3.351311 -0.888348 -2.045911 0.203555 -0.062556 -0.310278
H 2.178332 1.374413 -2.731446 0.103432 -0.556469 0.105551
H -3.307490 3.027681 -0.685061 0.313165 -1.184943 -0.537213
H -4.124918 1.683968 0.083587 -0.190638 -0.499630 0.188891
H -2.710682 2.632345 0.801678 -0.562729 -1.024025 -0.046132
21
Properties=species:S:1:pos:R:3:forces:R:3 energy=-17637.651979725353
C 2.442445 -0.412386 -0.055718 -1.657102 -3.872420 -0.066709
C 0.761823 1.804232 0.055340 -0.549367 3.986735 1.031742
C 3.012176 0.796509 -0.265351 -0.099989 2.435693 0.648459
C 2.118237 1.923805 -0.196001 0.188805 -2.474834 0.130823
C -3.555138 0.342941 0.165862 1.838713 -0.845933 -1.486083
C 0.973171 -0.540684 0.225259 3.121049 -0.710068 -1.188174
C 0.175054 0.584373 0.234550 0.536483 -0.733067 -0.557084
O -0.795393 -2.161173 -0.192169 0.098905 0.889771 -0.554974
O -2.074079 1.833424 -1.103487 0.779668 2.639872 -2.445928
O 1.011118 -2.873278 0.817434 1.925032 0.993664 0.355822
C 0.320462 -1.853100 0.222498 -1.225672 -2.005315 0.301438
C -2.176189 1.002934 -0.294830 -2.062283 -3.092019 2.785763
O -1.125986 0.339091 0.371268 -2.209807 0.433161 0.926309
H 0.534629 -3.681970 0.603317 -0.604441 -0.471544 -0.124437
H 3.006391 -1.421257 -0.296408 -0.971455 1.949300 0.972588
H 0.176425 2.795549 0.351322 0.976305 -2.049502 -1.164370
H 4.109653 1.031130 -0.249872 -0.906040 -0.611292 -0.610883
H 2.513586 2.840656 -0.455406 0.837451 2.306524 -0.119103
H -3.562949 -0.665436 -0.385051 -0.072052 1.113021 0.679540
H -3.520534 0.113526 1.230966 -0.242556 0.141907 0.164801
H -4.405638 0.944024 -0.192887 0.298351 -0.023655 0.320459
21
Properties=species:S:1:pos:R:3:forces:R:3 energy=-17637.946020290179
C 2.309009 -0.451941 -0.062333 0.479167 2.250545 0.081160
C 0.659565 1.883552 0.113073 -0.614663 -0.870860 0.439065
C 2.867700 0.821656 0.217829 0.406044 -1.179546 -0.271606
C 2.030039 1.910769 0.381089 0.244081 2.079320 0.352418
C -3.589996 0.727645 -0.043551 -0.668722 -1.911437 -1.512647
C 0.909171 -0.524279 -0.285977 0.682761 0.611148 0.348483
C 0.095585 0.617307 -0.235764 -0.604797 0.828809 0.362241
O -0.680440 -2.230327 -1.046448 1.954354 0.813179 1.292201
O -1.875972 1.423204 1.383860 0.109214 -0.153992 1.160499
O 1.354404 -2.753425 0.109665 -1.513551 -1.272555 -1.342998
C 0.338319 -1.824303 -0.467465 -0.303709 -3.970328 -0.933979
C -2.214794 0.798163 0.401947 1.249754 2.649982 0.991071
O -1.291689 0.367672 -0.494519 1.273840 -0.189467 -0.799606
H 1.258915 -3.713565 -0.255158 -0.442658 2.159978 0.653987
H 3.000247 -1.287842 -0.089996 -0.420402 -0.229257 -0.197227
H 0.083356 2.785863 0.388147 -0.046644 -0.649459 -0.505960
H 3.970476 0.939692 0.290139 -0.683151 -0.131402 0.212600
H 2.439935 2.903745 0.771123 -0.346635 -1.256611 -0.650721
H -3.675855 -0.308343 -0.398937 -0.495109 -0.127704 -0.418053
H -4.311102 0.826291 0.751445 -0.162452 0.561593 0.370405
H -3.749269 1.370171 -0.928444 -0.096720 -0.011938 0.368668
21
Properties=species:S:1:pos:R:3:forces:R:3 energy=-17637.410576279603
C 1.912802 -1.242204 -0.389407 -2.232873 -0.722953 0.368819
C 1.552806 1.422833 -0.542690 0.740557 1.196350 0.397026
C 2.943720 -0.497099 -0.876451 1.839078 -0.889131 -0.766222
C 2.885416 0.847968 -0.964590 -4.492675 2.548801 0.637967
C -2.894357 2.015432 0.585326 0.931610 -0.620670 1.144770
C 0.676519 -0.692487 0.075490 -0.796390 -2.287093 0.821397
C 0.501357 0.705921 0.073951 1.261634 -1.144024 -0.296712
O -1.711530 -1.574434 0.775326 2.800515 1.532555 -0.820673
O -1.697158 1.235321 -1.309327 0.296717 -0.502546 -3.139877
O -0.047048 -2.924212 1.022933 1.032636 -0.007686 0.196564
C -0.447055 -1.707428 0.627136 -2.068885 1.380368 -0.342124
C -1.746228 1.463856 -0.164359 0.367202 -0.810219 2.953951
O -0.609402 1.269643 0.715063 0.219971 0.308185 -1.113527
H -0.946591 -3.126001 1.393366 0.286576 -0.988565 0.013238
H 1.988559 -2.303035 -0.566609 -0.134747 -0.554854 0.478563
H 1.233548 2.501557 -0.557253 1.139817 -0.575493 -0.354151
H 3.825755 -0.993298 -1.315858 -0.269101 -0.074901 0.332547
H 3.597661 1.425436 -1.529889 0.278737 0.471136 0.127262
H -3.048796 1.609092 1.606372 0.339967 0.165435 -0.453262
H -2.514237 3.015343 0.629025 -0.543147 1.453415 0.525791
H -3.773524 1.915247 0.004166 -0.997198 0.121891 -0.711347
21
Properties=species:S:1:pos:R:3:forces:R:3 energy=-17638.086919630085
C 2.346238 -0.269779 0.442736 0.492457 -1.875591 -0.015276
C 0.644301 1.596114 -0.909744 2.065408 -2.562223 1.990348
C 2.879477 0.951997 0.055189 -1.808887 1.425476 -0.386721
C 2.014901 1.881224 -0.622285 -0.916815 0.139856 -0.922526
C -3.510090 0.840830 -0.622628 0.864617 -0.562070 -1.429916
C 0.963565 -0.616701 0.196572 0.146689 0.593628 0.395828
C 0.148969 0.359986 -0.352319 -0.687949 2.204934 -1.947116
O -0.687040 -2.377917 -0.126635 0.826700 0.615973 0.533794
O -1.865377 1.842694 0.869923 -0.127596 -1.882262 -1.823630
O 1.113559 -2.763894 1.214221 0.524251 2.364462 -0.142214
C 0.327325 -1.934493 0.409201 0.362180 -1.578064 -0.002630
C -2.134126 1.023878 -0.026876 0.137304 0.745856 1.296427
O -1.229699 0.173085 -0.692416 0.484933 0.310976 1.202689
H 0.764757 -3.619304 1.041447 -0.842228 -1.984652 -0.096653
H 3.037389 -1.110837 0.786290 -0.976037 1.155533 -0.115169
H -0.042971 2.004635 -1.618408 -0.088080 1.194763 -0.270291
H 3.862017 1.371902 0.270901 0.246826 -0.747515 0.065362
H 2.432836 2.816567 -1.052245 -0.061311 -0.494073 0.372039
H -3.829420 1.838840 -0.823404 -0.704890 0.991685 -0.032230
H -3.472023 0.325760 -1.612916 0.170749 0.119102 0.602677
H -4.248677 0.323065 -0.031268 -0.108318 -0.175794 0.725208
21
Properties=species:S:1:pos:R:3:forces:R:3 energy=-17637.933698089040
C 2.332008 -0.238270 0.342651 0.800923 -0.364177 0.028935
C 0.623448 1.727800 -0.513491 0.948520 0.402371 -0.759174
C 2.904279 0.880529 -0.297317 -2.416369 -0.133593 0.170968
C 2.000275 1.819675 -0.795317 -0.093652 0.241544 0.800473
C -3.622139 0.663823 0.056826 1.349906 -2.938935 0.016472
C 0.938520 -0.424011 0.575484 0.718319 2.077221 -1.906499
C 0.039271 0.642796 0.107961 3.429869 -0.864903 0.892550
O -0.709321 -2.131129 0.420893 1.173870 0.310287 0.367477
O -2.007888 0.949654 -1.750217 0.166152 -0.717019 3.117585
O 1.443072 -2.696732 1.118232 0.290686 3.486689 -0.255640
C 0.433752 -1.757066 0.698175 -0.889930 -3.153162 0.637360
C -2.209606 0.755628 -0.537203 -0.859931 1.676763 -1.247087
O -1.224591 0.620691 0.502483 -2.706762 -0.061814 -1.098115
H 1.140173 -3.580961 1.126130 -1.342030 -1.865393 -0.167513
H 3.037240 -1.054418 0.582527 -0.568524 0.203138 0.169147
H 0.121284 2.603637 -0.868446 -1.120006 0.253022 0.026282
H 3.938222 1.044200 -0.427430 1.318531 -0.218362 -0.078531
H 2.323357 2.758703 -1.260540 0.153418 -0.295727 -0.105196
H -4.372435 1.209469 -0.476483 -0.321977 0.264791 -0.721001
H -3.697232 -0.476362 -0.118471 -0.734195 1.188836 -0.040375
H -3.813597 0.699230 1.133597 0.703181 0.508423 0.151883
21
Properties=species:S:1:pos:R:3:forces:R:3 energy=-17637.675914987725
C 1.456048 -1.577814 -0.791595 1.610135 -0.861077 -1.549921
C 1.170322 1.175449 -1.321250 -2.164406 -1.703426 0.395981
C 2.253098 -0.944642 -1.785606 -0.960650 0.178895 1.428415
C 2.168975 0.417450 -1.935290 0.480869 1.256853 -1.370968
C -2.776336 1.849440 1.081811 0.523263 -0.605056 -1.394107
C 0.387181 -0.941098 -0.256343 -0.146203 2.790019 -0.834607
C 0.122511 0.429885 -0.726961 1.488879 -0.986937 1.384757
O -0.665714 -0.928440 1.833158 -0.560745 -0.487052 1.488901
O -0.368088 2.325929 1.188933 -0.408868 0.451523 0.137184
O -0.180280 -2.878006 0.691692 -0.849138 -3.435522 3.309058
C -0.220326 -1.576227 0.917625 -0.374220 1.986480 -1.735627
C -1.323012 1.831736 0.659734 0.443661 -1.874259 -1.201888
O -1.124824 0.897027 -0.471273 -1.044600 1.271628 0.922329
H -0.377559 -3.397205 1.582390 0.251829 1.307989 -2.049788
H 1.608290 -2.607827 -0.444349 0.364924 0.234378 -0.476180
H 0.979988 2.212892 -1.477098 0.154073 0.840145 -0.335331
H 2.861849 -1.454573 -2.463021 1.302053 -1.198978 -0.692151
H 2.762898 0.942216 -2.731193 -0.139823 -0.507700 0.832422
H -2.839418 2.818599 1.458026 -0.630212 1.767804 1.425604
H -3.576751 1.766151 0.314565 0.795330 -0.357961 0.014222
H -2.879937 1.072268 1.836588 -0.136151 -0.067747 0.301693
21
Properties=species:S:1:pos:R:3:forces:R:3 energy=-17637.919686649664
C 2.206501 -0.440709 -0.160272 1.510030 2.989379 0.393683
C 0.762388 1.848436 0.384725 -1.690846 -0.236435 0.711281
C 2.831007 0.831646 -0.152932 0.521851 -0.154264 -0.186981
C 2.116553 1.963339 0.194244 0.434373 1.142553 -0.418825
C -3.616793 1.168786 0.023846 1.721977 0.505142 2.402492
C 0.892686 -0.557690 0.200854 -2.002273 -0.977233 -0.673858
C 0.101751 0.618455 0.307046 0.178410 -0.700578 0.969077
O -0.722980 -2.343081 0.636120 -1.088129 -0.704484 0.519318
O -1.832133 0.970417 -1.565484 0.119152 0.225348 1.550881
O 1.311445 -2.814435 -0.267334 -1.207198 -2.438145 0.589420
C 0.355010 -1.993631 0.250301 1.136710 2.402385 -0.707035
C -2.178719 0.933619 -0.382398 0.343152 -0.802310 -3.210858
O -1.275442 0.543615 0.648024 -0.464606 0.762068 -0.538403
H 0.876798 -3.723729 -0.110885 0.902562 1.159150 -0.471941
H 2.808510 -1.264588 -0.381546 0.751856 -1.406099 -0.258058
H 0.160704 2.647940 0.801567 -0.110223 0.525360 -0.362193
H 3.887956 1.023193 -0.379206 -0.101478 -0.679423 -0.071162
H 2.577440 2.988194 0.225095 -0.231710 -1.021943 0.114771
H -3.714534 0.464788 0.894255 -1.038203 0.639688 -0.649583
H -3.547220 2.193532 0.413332 0.082932 0.164211 0.981589
H -4.413473 1.409877 -0.682563 0.231663 -1.394372 -0.683613
21
Properties=species:S:1:pos:R:3:forces:R:3 energy=-17638.065993596963
C 2.321718 -0.470849 -0.065234 -1.952926 1.262462 -0.646620
C 0.879012 1.948329 0.380836 0.598423 0.007068 -0.478622
C 2.980955 0.782263 -0.154279 1.343751 -2.962596 -0.441704
C 2.302454 1.924001 0.128739 -2.111935 0.997997 0.056590
C -3.536427 0.839654 0.443854 -0.408532 0.457884 -3.193976
C 0.890327 -0.475144 0.067719 1.031370 0.476773 0.819199
C 0.153754 0.747674 0.364517 1.859507 -1.461012 -1.724204
O -0.813055 -2.166220 -0.508869 2.468864 0.638012 1.136148
O -2.017375 0.778665 -1.601472 -0.773043 0.026579 1.476944
O 1.045455 -2.655217 0.822362 0.120045 -0.449090 -0.285421
C 0.260617 -1.823159 0.041998 -2.341336 -0.926033 -0.334342
C -2.238056 0.743809 -0.406157 0.854469 0.478994 -0.098928
O -1.177043 0.627801 0.552360 -1.397578 0.568169 0.812848
H 0.847562 -3.621117 0.737329 -0.501153 0.688168 -0.233997
H 2.797654 -1.414789 -0.326242 0.195990 0.114939 0.169770
H 0.360216 2.929871 0.386993 0.241587 -0.615183 0.373354
H 4.031525 0.649644 -0.543169 -0.790729 0.967510 0.703684
H 2.778207 2.879547 0.036604 0.384393 0.622160 0.006804
H -3.468877 1.467834 1.298376 0.485594 0.707966 0.814961
H -4.375015 1.222065 -0.232369 0.980819 -0.513367 0.734580
H -3.786639 -0.146079 0.762464 -0.287582 -1.087399 0.332933
21
Properties=species:S:1:pos:R:3:forces:R:3 energy=-17637.675621732269
C 2.270713 -0.481074 -0.052893 -0.456031 -0.647798 0.035751
C 0.362053 0.068289 -2.047042 2.402675 -0.104878 -1.551135
C 2.699253 -0.102349 -1.318270 0.666764 0.436327 -1.819252
C 1.719264 0.110162 -2.328732 1.127918 -0.327927 1.530773
C -3.250259 1.460269 -0.146044 0.596234 1.818586 -0.343181
C 0.875486 -0.513314 0.212721 -0.804656 0.142450 -0.701728
C -0.064830 -0.219511 -0.828404 -1.202812 -0.060335 3.294948
O 1.131977 -1.296392 2.409036 2.420539 -0.247274 2.412647
O -0.924722 1.808107 0.586210 0.583174 0.537767 0.491619
O -0.919174 -1.075852 1.685662 -1.160456 0.077059 -2.534884
C 0.407788 -0.919460 1.549336 -0.411211 -0.658325 -1.177017
C -1.755126 1.157594 0.022647 -1.601067 0.123679 -0.885285
O -1.509385 -0.050880 -0.644150 1.810409 0.319818 0.105569
H -1.224002 -0.789672 2.520644 -0.363912 0.247418 2.263294
H 2.949885 -0.948763 0.678509 -0.221563 0.660904 0.032539
H -0.283396 0.181638 -2.838016 -1.849560 0.482415 -1.791195
H 3.786745 0.032067 -1.685950 -1.530187 -0.516857 1.079300
H 2.070687 0.220456 -3.324109 0.178568 0.407700 -1.046151
H -3.555683 1.887313 -1.158477 0.716611 -0.186012 1.145794
H -3.634675 0.510539 -0.137543 -1.589348 -2.682345 -0.104961
H -3.745353 1.993573 0.693787 0.687910 0.177627 -0.437445
21
Properties=species:S:1:pos:R:3:forces:R:3 energy=-17637.888205013605
C 2.129984 -0.902322 -0.043522 -1.525715 0.442077 0.056555
C 1.010428 1.134451 -1.676538 -0.187943 -1.960111 2.407333
C 2.722309 -0.463743 -1.200542 3.566955 -1.616214 0.063077
C 2.161435 0.417373 -2.098890 -1.244254 1.712979 0.830334
C -3.152283 1.432736 0.353447 -1.124159 -0.171832 -0.046268
C 0.904831 -0.296594 0.291833 -0.220027 -1.498425 1.279236
C 0.375653 0.721102 -0.415726 -0.322267 2.159766 -3.428680
O -0.403885 -0.134312 2.267984 -0.123816 -1.376223 0.018646
O -2.132266 -0.489878 -0.807141 0.460012 2.698420 1.703848
O 0.282446 -2.254938 1.438966 0.107609 2.357093 -0.935732
C 0.143486 -0.840314 1.435709 1.005607 0.051595 -0.466462
C -2.037686 0.612491 -0.213521 -0.127735 -1.987051 -1.518002
O -0.872256 1.359665 -0.080754 1.311897 -0.873525 -0.224170
H -0.080730 -2.377737 2.290652 -1.100679 -1.394012 2.389143
H 2.352820 -1.758783 0.585511 0.880268 0.050907 -0.154207
H 0.505400 1.967495 -2.084469 -0.260730 0.814591 -1.313565
H 3.824932 -0.778348 -1.365983 -1.804365 0.062533 -0.177860
H 2.717379 0.588489 -3.007153 -0.097953 0.485249 -0.422595
H -2.786151 2.300250 0.941489 -0.280888 -0.476773 -0.269149
H -3.772816 1.759264 -0.512950 0.354913 0.188869 0.287171
H -3.879039 0.793524 0.918477 0.733268 0.330088 -0.078654
21
Properties=species:S:1:pos:R:3:forces:R:3 energy=-17637.419109647573
C 1.946797 -1.133847 -0.485591 -0.497195 2.266379 -1.566807
C 0.563221 1.122841 -1.469369 2.250440 -1.085327 -3.568579
C 2.313989 -0.540199 -1.731287 -1.022256 -0.166090 -0.825918
C 1.588312 0.536251 -2.333740 -0.585138 0.262363 2.596268
C -2.656747 2.166235 0.255650 -2.950061 0.093422 1.651390
C 0.867422 -0.628262 0.242235 0.791308 -0.395423 -0.238590
C 0.186032 0.479338 -0.339601 2.548617 -2.332955 0.517812
O 1.545972 -1.670303 2.348048 -2.426651 1.304024 -1.614343
O -2.473388 0.158031 -1.063440 -1.354019 -4.161002 -3.512762
O -0.684349 -1.157588 1.978094 0.298843 0.615926 2.034441
C 0.620563 -1.199992 1.622453 2.318458 -0.771311 0.148618
C -2.083470 0.875243 -0.263848 1.566310 6.167815 3.773711
O -0.786892 1.007015 0.319854 -2.907225 0.372779 1.724063
H -0.619952 -1.056934 2.985705 -0.483037 -0.655287 -1.236560
H 2.526110 -1.908155 -0.093698 0.929951 -1.400190 0.636196
H -0.007035 1.956773 -1.845437 -0.253624 0.402435 0.058102
H 3.033709 -1.073891 -2.347988 0.381746 0.089423 0.071343
H 1.800827 1.014759 -3.313809 0.092353 -0.552692 0.606047
H -3.430586 2.653518 -0.375862 0.397224 -0.469908 -0.027551
H -3.211727 1.956213 1.244462 0.572612 0.133583 -1.096872
H -1.886387 2.867145 0.538546 0.331343 0.282035 -0.130010
21
Properties=species:S:1:pos:R:3:forces:R:3 energy=-17637.938351290708
C 2.367382 -0.250022 0.100435 0.453242 -1.771496 -0.247577
C 0.575423 1.809327 -0.320942 3.181238 3.955827 0.279167
C 2.903014 1.023386 -0.197838 1.048036 -0.453008 -0.128869
C 2.024933 2.059779 -0.447065 -1.659890 1.037040 0.162861
C -3.533303 0.947969 0.109690 0.094339 -0.404849 0.765844
C 0.965127 -0.511302 0.267586 0.725547 0.394570 -0.863723
C 0.159457 0.591850 0.051596 -3.219747 -0.285608 1.635252
O -0.835261 -2.206152 0.384842 0.318913 0.407270 -0.011820
O -1.946329 0.540538 -1.619948 0.742193 0.238492 -1.767202
O 1.374216 -2.686453 0.907991 -0.435523 0.129139 0.000843
C 0.311505 -1.836209 0.501437 1.780404 -1.367868 0.600003
C -2.178390 0.743575 -0.471249 -0.326831 -1.629494 1.655331
O -1.232868 0.587331 0.566541 1.116110 0.266657 -1.437829
H 1.093645 -3.598520 1.144831 -0.471064 0.462271 -0.295049
H 3.056935 -1.149868 0.086261 -0.740148 1.065379 0.379288
H -0.016508 2.760623 -0.120120 0.230200 -1.429766 -0.756718
H 4.039364 1.209526 -0.244962 -1.719920 -0.505373 0.044735
H 2.421112 3.117257 -0.609921 -0.690993 -1.327479 0.071516
H -4.252312 1.125034 -0.684707 -0.093077 0.664180 -0.101669
H -3.909591 0.018066 0.603599 0.573504 0.431137 0.000858
H -3.360385 1.725840 0.866476 -0.906534 0.122981 0.014758
21
Properties=species:S:1:pos:R:3:forces:R:3 energy=-17638.010299153742
C 2.219008 -0.403510 -0.284552 2.884888 0.574991 0.035232
C 0.856368 1.893991 0.289156 -0.617784 2.146954 -0.434409
C 2.967331 0.783187 -0.171034 0.551082 1.558107 0.294201
C 2.234231 1.952676 0.157998 0.150681 -0.949482 -0.349373
C -3.496884 0.703198 0.260948 0.734125 0.532329 -3.120466
C 0.893217 -0.432683 0.019092 -1.073369 -1.290172 0.595801
C 0.157010 0.738054 0.237985 1.684477 -1.784211 0.358080
O -0.790793 -2.002998 -0.441294 -2.631972 -0.275744 -0.919161
O -1.864758 0.723946 -1.487036 0.242180 -0.083366 2.617990
O 0.870899 -2.742697 0.799595 1.707774 0.757634 1.086449
C 0.218519 -1.756443 0.141716 0.833084 -0.461790 -0.507873
C -2.089590 0.681661 -0.265151 -0.132471 0.798365 -2.221402
O -1.098550 0.657918 0.732547 -2.183862 0.215431 -0.675637
H 0.351368 -3.558638 0.837508 -0.562668 -0.100818 -0.387330
H 2.809683 -1.292390 -0.496859 -0.354449 -0.365703 0.039540
H 0.242328 2.809740 0.321008 0.424336 -0.070079 0.518037
H 4.112423 0.892811 -0.259606 -1.800304 -0.611984 -0.038774
H 2.629675 2.923356 0.371277 0.901991 0.525479 -0.194196
H -3.741360 1.333947 1.039199 -0.076488 1.490078 2.102427
H -4.102986 1.000263 -0.623537 0.142528 -0.287993 0.471227
H -3.710480 -0.281280 0.498223 -0.823780 -2.318026 0.729637
21
Properties=species:S:1:pos:R:3:forces:R:3 energy=-17637.775348318384
C 2.281192 -0.862876 -0.254175 0.058965 -2.857940 2.422796
C 0.911495 1.040041 -1.565208 -0.338943 -0.471263 1.797857
C 2.867919 -0.342834 -1.339103 0.731070 2.316046 -1.400036
C 2.163942 0.696016 -2.032065 -0.894747 -1.854474 1.300533
C -2.995754 1.733821 0.665361 -1.324897 -0.594214 -0.054861
C 1.038319 -0.493334 0.236566 -2.786035 -0.473178 1.747949
C 0.315938 0.531809 -0.389257 0.711614 0.167856 -0.815827
O 0.467483 -2.457780 1.596638 0.269885 -1.368791 0.553422
O -2.455680 0.057198 -1.000418 -1.143869 -1.822679 -1.732040
O -0.636656 -0.489155 1.995787 0.153160 -1.229024 1.119083
C 0.294082 -1.302222 1.359193 0.478964 2.419650 -1.304644
C -2.166282 0.867622 -0.195623 1.374874 0.683309 0.454841
O -0.836634 1.163323 0.089174 1.353105 0.418699 0.360074
H -0.984673 -1.030220 2.770760 0.363027 0.462076 -1.021430
H 2.789566 -1.746904 0.243635 -0.545588 1.055350 -0.265347
H 0.317819 1.778296 -1.995778 -0.853095 1.392372 -1.411297
H 3.926265 -0.565165 -1.438024 0.056570 -0.183087 -0.878372
H 2.233402 0.960632 -3.038983 1.457879 0.773748 -1.673413
H -2.316916 2.375493 1.130660 0.923917 1.777458 0.704908
H -3.822666 2.261331 0.128083 0.492487 -0.558445 0.443520
H -3.329447 1.115789 1.516981 -0.538342 -0.053470 -0.347714
21
Properties=species:S:1:pos:R:3:forces:R:3 energy=-17637.781823805082
C 2.042429 -1.014375 -0.388019 3.160436 -1.856936 -0.195278
C 0.881087 1.139394 -1.337738 -2.168585 2.495007 -1.256296
C 2.685480 -0.365870 -1.437423 -0.025330 1.326680 -0.472205
C 2.058180 0.799487 -1.922151 1.417078 -1.538100 -0.244508
C -3.088349 1.903927 0.094982 1.400713 -2.865107 -0.493808
C 0.936108 -0.537477 0.255423 -2.237710 0.572340 1.086294
C 0.258457 0.611471 -0.233980 1.785214 -1.211006 -0.414780
O 0.059698 -2.474026 1.494713 1.017175 3.021939 -0.628941
O -2.220851 -0.250773 -1.047350 0.446296 2.399818 1.357075
O 0.096606 -0.407301 2.456703 0.377908 0.905456 -0.480217
C 0.344304 -1.241065 1.405237 -1.166384 -3.788555 1.693068
C -2.057514 0.784717 -0.379678 -2.490854 -0.595102 -1.011111
O -0.925359 1.192932 0.216760 2.143729 -0.500137 0.180696
H -0.263084 -0.888970 3.221594 -0.132355 -0.547676 -0.150328
H 2.658953 -1.902918 -0.047882 -1.325554 0.700451 0.206285
H 0.314477 1.879690 -1.906539 -0.117530 0.466449 0.305374
H 3.672249 -0.655039 -1.835956 -0.495534 -0.276223 0.225097
H 2.426445 1.356727 -2.789215 -0.005098 -0.084120 0.162695
H -4.020788 1.386838 0.094520 -1.346982 0.358050 -0.511376
H -2.788636 1.979775 1.113041 0.109573 0.566516 1.220200
H -2.918380 2.842058 -0.398459 -0.346206 0.450254 -0.577936
21
Properties=species:S:1:pos:R:3:forces:R:3 energy=-17638.117033579227
C 2.268492 -0.283478 0.002973 0.994556 1.140263 -0.615094
C 0.812882 2.133721 -0.122278 0.196441 -2.149438 -0.329732
C 2.965245 0.919198 -0.310874 -0.347131 1.673510 0.306560
C 2.191087 2.154134 -0.349346 -0.468571 -3.436677 0.446094
C -3.612253 0.776304 -0.140656 -0.080466 -0.569458 -1.783930
C 0.872873 -0.339282 0.188147 -0.250969 0.283846 0.044878
C 0.124493 0.894570 0.024455 0.951760 -0.364194 0.999089
O -0.787564 -1.924814 1.142353 0.364427 1.354988 -0.459599
O -1.854445 -0.310474 -1.462560 0.341054 -1.369716 -1.542194
O 1.158268 -2.808776 0.540679 -1.057159 0.855633 -0.334880
C 0.320094 -1.664815 0.665531 -0.739507 -1.316511 0.056418
C -2.180337 0.358027 -0.544573 -0.790901 1.677887 0.807915
O -1.229505 1.020392 0.262340 -0.517679 0.008620 0.341479
H 0.425073 -3.487859 0.679515 1.179492 0.517173 0.069754
H 2.812278 -1.217663 0.049690 0.183623 -0.199725 0.166088
H 0.214874 3.011266 -0.069892 -0.465185 0.879726 -0.184116
H 4.107421 1.091456 -0.417470 -1.873091 -0.980209 0.065387
H 2.620404 3.053999 -0.629354 1.180410 1.863774 -0.271013
H -3.577286 1.002774 0.909967 -0.459060 0.694439 0.501966