12
Properties=species:S:1:pos:R:3:forces:R:3 energy=-11279.616527386008
C 1.634176 0.233638 -0.111566 0.900556 1.727510 -0.437946
C 1.403299 -1.049897 0.008397 -1.336909 -3.524260 1.231658
N 0.054164 -1.505104 0.294792 2.630104 0.048578 -0.776639
C -1.068736 -0.703341 0.053141 1.743698 -0.584668 1.186177
N -0.762455 0.653368 0.152712 -0.945844 -0.156400 -0.797391
C 0.539549 1.197861 -0.071408 0.032932 1.108790 -0.350024
O -2.131968 -1.261547 -0.046313 -1.772655 0.399950 -0.411920
O 0.667754 2.409042 -0.247929 -0.066863 -0.323672 0.143456
H 2.269739 -1.798019 0.019068 -1.548720 0.691267 -0.066361
H -0.165313 -2.501515 0.271942 0.134096 0.128040 -0.096287
H -1.588341 1.242665 -0.079799 0.863075 -0.028497 0.262840
H 2.680502 0.512437 -0.314140 -0.633468 0.513361 0.112435
12
Properties=species:S:1:pos:R:3:forces:R:3 energy=-11279.392983146703
C 1.585055 0.319943 0.195317 1.544988 -3.116320 0.103490
C 1.358890 -1.049162 0.030549 1.210719 1.604128 0.807395
N 0.138074 -1.584823 -0.086315 -2.569674 -1.960088 0.252380
C -1.024709 -0.714995 0.083000 0.802502 -1.717180 -0.591949
N -0.692145 0.542831 -0.222196 -0.883957 1.388561 -0.108193
C 0.536652 1.164027 -0.103054 -0.207851 1.780754 -0.065429
O -2.136386 -1.104201 0.342764 -0.803870 -0.728011 0.287236
O 0.573317 2.379767 -0.255051 0.169051 0.920956 0.014681
H 2.186509 -1.725750 0.028275 0.540814 -0.607633 0.196526
H -0.084231 -2.649718 0.016870 0.716301 2.510361 -0.250107
H -1.401441 1.267193 -0.153708 -0.638064 -0.166472 -0.145440
H 2.546222 0.679619 0.549067 0.119040 0.090945 -0.500590
12
Properties=species:S:1:pos:R:3:forces:R:3 energy=-11279.752722152378
C 1.625752 0.322288 -0.135728 -2.203798 -0.060539 -0.207849
C 1.370892 -1.007307 -0.057038 0.647169 -0.497246 0.562269
N 0.132395 -1.571289 0.189755 0.817863 0.246613 -0.265550
C -1.009024 -0.806695 0.121281 -0.651510 0.427151 -0.638699
N -0.726382 0.565147 -0.167475 -1.637662 0.142022 0.269141
C 0.506997 1.261001 -0.136102 -0.119686 0.993411 0.814710
O -2.123744 -1.310856 0.211423 0.163791 0.667469 0.103030
O 0.575977 2.513055 -0.056979 -0.257640 -2.133662 -0.482659
H 2.145368 -1.761567 -0.073689 0.466115 -0.034165 -0.053011
H 0.016474 -2.588949 0.297456 0.013428 0.618951 -0.090587
H -1.581138 1.159436 -0.232356 0.688268 -0.498073 0.174469
H 2.516655 0.839310 -0.280830 2.073661 0.128067 -0.185263
12
Properties=species:S:1:pos:R:3:forces:R:3 energy=-11279.463646658529
C 1.607609 0.207460 -0.190611 -2.520054 -1.075037 0.065663
C 1.311314 -1.120409 0.045293 1.992400 0.474909 -0.365379
N 0.040434 -1.527071 0.190447 -0.143409 -2.141560 0.386447
C -1.030146 -0.691781 0.025069 -1.029514 -0.495315 0.569043
N -0.754880 0.599283 -0.266925 1.475851 2.132791 -0.608384
C 0.574731 1.242157 -0.195903 -0.291902 -1.326781 1.401868
O -2.123947 -1.189028 0.229346 -1.543971 0.246098 -0.164597
O 0.717904 2.433466 0.066173 -0.384252 -0.504666 -0.907576
H 2.141572 -1.883736 0.081556 -0.970826 0.702869 0.230109
H -0.322865 -2.472203 0.528661 1.076993 1.383351 -0.698416
H -1.495668 1.286372 -0.359355 -0.543880 -0.227039 0.199776
H 2.569294 0.529734 -0.113571 2.882566 0.830380 -0.108554
12
Properties=species:S:1:pos:R:3:forces:R:3 energy=-11279.368858347509
C 1.621354 0.276400 -0.103697 1.250796 0.507571 -1.725877
C 1.386363 -1.048968 -0.115941 1.290198 -2.632977 0.773568
N 0.172478 -1.565348 0.243897 -1.860443 0.606342 0.115730
C -0.988759 -0.758280 0.147959 2.607719 1.169187 -0.444267
N -0.778460 0.609554 0.078432 0.823430 -1.105015 0.107314
C 0.460453 1.207467 -0.105034 1.196445 0.457545 1.134733
O -2.084388 -1.170054 0.008834 -3.604616 -2.194343 0.241335
O 0.560924 2.422103 -0.140966 0.085691 0.730003 -0.502327
H 2.108634 -1.929402 -0.306000 -0.482496 1.798168 0.322360
H -0.063646 -2.520604 0.528286 0.566494 0.097117 -0.536496
H -1.652155 1.095383 -0.064884 -0.110853 0.666081 -0.068836
H 2.666629 0.616142 -0.435386 -1.762363 -0.099679 0.582764
12
Properties=species:S:1:pos:R:3:forces:R:3 energy=-11279.108050018374
C 1.679067 0.185021 -0.101874 -2.484299 -0.323805 0.031414
C 1.308797 -1.164341 -0.126125 1.689558 2.074706 1.118080
N 0.057035 -1.602767 0.081276 -3.253007 -0.169763 -0.418801
C -1.079455 -0.651787 0.154528 3.236900 -1.783976 -0.608872
N -0.757909 0.637716 0.256152 4.039366 0.433912 -0.031445
C 0.585173 1.256608 -0.036871 0.630196 -4.293141 -0.023764
O -2.161328 -1.122767 0.039970 -3.292035 -0.885840 0.083363
O 0.719259 2.413893 -0.254136 -0.177987 2.313345 -0.002512
H 2.138844 -1.820937 0.076844 0.199995 -0.899834 -0.612674
H -0.442774 -2.518690 -0.209483 1.798100 1.414152 0.552962
H -1.504259 1.243941 0.269722 -2.311877 2.020425 -0.009826
H 2.725443 0.474681 -0.113637 -0.074909 0.099821 -0.077925
12
Properties=species:S:1:pos:R:3:forces:R:3 energy=-11279.512314153439
C 1.677987 0.345083 -0.213713 -0.314174 1.298149 0.000738
C 1.477017 -0.955430 -0.056164 -0.832352 -2.515350 -0.139472
N 0.186247 -1.496692 0.183675 0.478060 -1.541716 -0.446079
C -1.006439 -0.792386 0.142209 -2.770506 -1.457113 -0.677478
N -0.839411 0.538953 0.026781 3.050873 1.729711 0.075533
C 0.442138 1.231267 -0.075847 1.669438 -1.331979 -0.298166
O -2.158374 -1.314396 0.115030 2.382669 0.507391 0.253943
O 0.574732 2.432753 -0.094503 -0.946186 0.933671 -0.004321
H 2.216237 -1.783640 -0.155486 -0.204356 0.819250 0.104501
H 0.034042 -2.502918 -0.079966 0.257836 1.135691 0.642557
H -1.613391 1.134719 -0.138818 -1.300427 0.571858 0.055373
H 2.707299 0.752315 -0.452960 -1.470875 -0.149563 0.432870
12
Properties=species:S:1:pos:R:3:forces:R:3 energy=-11279.271003862012
C 1.656578 0.135491 -0.270957 -0.327324 1.537587 -0.748291
C 1.305982 -1.161149 -0.110099 2.263542 0.129894 -0.351068
N 0.055249 -1.501734 0.183201 -2.746789 -1.600250 0.517697
C -1.034265 -0.673547 0.192537 -3.736376 0.192751 -1.685336
N -0.734846 0.696833 0.185348 -1.104600 -0.346762 0.902862
C 0.542946 1.178774 -0.138949 2.016193 1.491801 1.390685
O -2.218595 -1.144788 0.008351 3.160830 1.276236 1.324017
O 0.779436 2.404269 -0.086176 -0.418980 -1.425190 -0.537806
H 1.990646 -2.014483 -0.185009 0.082976 0.299315 0.027216
H -0.353216 -2.446736 0.142122 0.895237 -0.032500 -0.101303
H -1.491605 1.335735 0.601685 1.462069 -0.880558 -1.223060
H 2.695762 0.520234 -0.544712 -1.546778 -0.642323 0.484386
12
Properties=species:S:1:pos:R:3:forces:R:3 energy=-11279.342733064967
C 1.657507 0.299142 0.017090 0.554864 -0.978037 -1.596103
C 1.351842 -1.048597 0.093082 3.967684 0.068936 -0.398108
N 0.126321 -1.532983 0.210883 -2.463543 0.871234 0.002838
C -1.050186 -0.750222 0.056326 -1.810983 -0.858397 0.181707
N -0.695185 0.580559 -0.075933 -0.702292 -1.016102 -0.101644
C 0.529294 1.161019 -0.139955 2.202285 4.127679 1.160696
O -2.225565 -1.207552 0.068158 2.818588 0.954779 -0.063369
O 0.643483 2.444703 -0.182235 -0.698240 -2.965954 -0.439122
H 2.141657 -1.880098 0.029975 -0.878459 1.341586 0.212059
H -0.015076 -2.506206 0.254899 -0.356075 -1.533097 0.129504
H -1.368713 1.268589 -0.275809 -1.907430 0.866604 -0.129763
H 2.608479 0.750940 -0.391770 -0.726401 -0.879229 1.041305
12
Properties=species:S:1:pos:R:3:forces:R:3 energy=-11279.413891972667
C 1.668509 0.191543 -0.192679 -2.483167 -1.140636 -0.130871
C 1.331014 -1.129567 -0.019940 -0.135081 0.240328 0.188055
N 0.002942 -1.579182 0.058113 0.542357 -0.932011 0.525001
C -1.070296 -0.694238 0.042393 -1.801739 -0.585001 0.597626
N -0.739972 0.614698 -0.204788 4.433330 -1.959211 0.023672
C 0.630658 1.234112 -0.171285 -0.967637 -2.330779 0.874639
O -2.243943 -1.073420 0.290166 1.848685 0.477544 -0.615316
O 0.777370 2.393992 0.098424 0.024739 1.396030 -0.470049
H 2.176954 -1.824542 0.145379 -0.831226 -0.130279 -0.207338
H -0.318701 -2.535143 0.384495 0.946310 1.270568 -0.515505
H -1.521159 1.127218 -0.324095 -3.250799 2.954996 -0.273198
H 2.681463 0.418005 -0.268179 1.674227 0.738451 0.003284
12
Properties=species:S:1:pos:R:3:forces:R:3 energy=-11279.450512267853
C 1.654352 0.288834 -0.074230 -0.662133 -1.312318 -0.039820
C 1.344726 -1.032610 0.170661 2.374116 0.094359 -0.131916
N 0.096906 -1.575419 0.101464 -0.662069 -1.638037 0.627901
C -1.064679 -0.786220 0.054793 -0.993039 0.791088 -0.232581
N -0.810065 0.540824 -0.100635 4.332886 1.601790 -0.834443
C 0.583974 1.226642 -0.224343 -1.075305 0.283806 1.712215
O -2.226726 -1.162056 0.130768 0.186522 -1.190464 0.273085
O 0.753829 2.445853 -0.129910 -1.101709 -0.968973 -0.737653
H 2.218566 -1.712298 0.416762 -1.262525 0.419621 -0.276692
H -0.079991 -2.587897 0.357424 0.352363 1.507130 -0.421498
H -1.514767 1.209714 0.068522 -1.465710 0.693685 0.085127
H 2.658084 0.704459 0.001539 -0.023395 -0.281688 -0.023725
12
Properties=species:S:1:pos:R:3:forces:R:3 energy=-11279.614602602031
C 1.678295 0.165904 -0.109400 -0.248636 1.098863 0.239777
C 1.362493 -1.146827 -0.019245 -0.884269 -1.391009 -0.324431
N 0.044416 -1.573624 0.010744 -0.571178 -1.164836 -0.169154
C -1.048253 -0.682940 0.077353 0.757257 -0.970638 -0.091077
N -0.741268 0.654220 -0.037338 -0.815467 0.385043 0.299261
C 0.562671 1.203665 -0.087334 0.610008 1.443123 0.003854
O -2.165172 -1.116865 0.226651 -1.489259 -0.210711 0.080575
O 0.677416 2.452341 -0.093854 0.288645 -2.102358 -0.028301
H 1.958045 -2.079442 -0.002653 0.732325 1.044607 -0.035293
H -0.221966 -2.628106 -0.059213 0.572837 2.553142 0.326727
H -1.613610 1.259930 0.090439 1.751164 -0.613473 -0.286599
H 2.729770 0.509503 -0.116992 -0.703428 -0.071753 -0.015339
12
Properties=species:S:1:pos:R:3:forces:R:3 energy=-11279.358043137530
C 1.646715 0.208429 0.001106 -1.204193 -3.294996 -1.309440
C 1.318622 -1.175689 -0.136330 0.119023 3.719250 1.060178
N -0.014509 -1.523039 -0.100635 0.824207 -2.647741 1.503071
C -1.110483 -0.660722 0.093981 0.757960 -0.796403 -0.187063
N -0.748532 0.690057 0.056299 -1.020906 -1.172282 -0.089592
C 0.603671 1.202689 -0.077124 -0.295450 1.102026 0.717683
O -2.205806 -1.197866 0.249885 0.050293 1.334744 0.134347
O 0.846039 2.411575 -0.141529 -0.665152 -0.618441 -0.116446
H 2.054347 -1.978626 -0.113288 -0.061848 -0.004316 -0.154189
H -0.157998 -2.435025 0.449001 -0.221345 1.328552 -1.537153
H -1.632668 1.211009 0.133387 0.813176 0.872250 -0.119035
H 2.628781 0.580503 -0.164384 0.904233 0.177355 0.097639
12
Properties=species:S:1:pos:R:3:forces:R:3 energy=-11279.564333320450
C 1.598632 0.184849 -0.354933 -0.675433 -1.811694 1.151123
C 1.329055 -1.186029 -0.252235 -0.383456 3.191097 0.426920
N 0.067080 -1.638750 0.068965 -1.276916 1.126097 -0.006824
C -1.029623 -0.723583 0.170059 -0.124962 0.894456 -0.138829
N -0.684044 0.643459 0.286072 -0.795971 -0.083396 0.175645
C 0.531449 1.203718 0.011416 2.816767 0.104237 -2.038444
O -2.219851 -0.983865 0.151353 0.108951 -1.154930 0.045921
O 0.744018 2.416304 -0.106206 -0.583230 -0.469475 0.617663
H 2.109711 -1.896291 -0.192599 0.818194 -0.956618 -0.462681
H -0.224641 -2.571362 -0.192830 -0.058251 -0.348903 0.093902
H -1.489116 1.313329 0.280073 0.631254 -0.844844 0.169006
H 2.654624 0.456695 -0.474309 -0.476946 0.353974 -0.033400
12
Properties=species:S:1:pos:R:3:forces:R:3 energy=-11279.053573671814
C 1.687647 0.212278 -0.348940 -0.551754 2.733129 1.529637
C 1.433400 -1.053329 0.040107 -0.608286 0.247534 0.099983
N 0.160407 -1.565014 0.330414 0.132980 -3.390913 -0.945933
C -0.985528 -0.852769 0.081435 -2.871514 3.053537 0.116816
N -0.765776 0.577048 -0.072632 1.562232 -0.945952 -0.125387
C 0.509953 1.287311 -0.150853 -0.539961 -1.300579 -0.388709
O -2.196724 -1.172939 0.105678 2.349063 -0.942008 -0.051036
O 0.528941 2.513576 -0.053631 0.634159 -1.422394 -0.285616
H 2.230668 -1.733571 0.266950 0.444628 -0.526714 -0.125147
H 0.049227 -2.668307 0.219642 0.149135 2.957156 0.516049
H -1.663037 1.083270 -0.121878 0.574648 0.002006 0.123427
H 2.746122 0.611566 -0.267738 -1.275329 -0.464803 -0.464086
12
Properties=species:S:1:pos:R:3:forces:R:3 energy=-11278.727757083783
C 1.605837 0.272321 0.294746 2.769435 1.343554 -1.779371
C 1.406558 -0.996285 -0.070281 0.401322 -1.097473 1.460246
N 0.133616 -1.415794 -0.005992 -1.157842 -6.095158 -1.943056
C -1.049724 -0.706925 0.082588 1.909270 1.061842 0.289657
N -0.781410 0.612610 -0.023230 -0.035798 1.516939 0.889173
C 0.502449 1.157318 -0.022183 1.011889 -0.939642 -0.123367
O -2.096143 -1.241368 0.220801 -3.127335 -1.389804 0.229420
O 0.596893 2.290414 -0.401515 0.580759 2.707018 -0.189264
H 2.211564 -1.763538 -0.150722 -0.660546 0.508461 -0.199723
H -0.096210 -2.459324 -0.303316 0.636855 2.601212 0.965754
H -1.346666 1.399250 0.294027 -1.219382 -0.595894 -0.424731
H 2.657736 0.593195 0.038206 -1.108626 0.378946 0.825261
12
Properties=species:S:1:pos:R:3:forces:R:3 energy=-11279.426149870638
C 1.648278 0.273041 0.014820 -1.302959 -3.316575 0.297133
C 1.420807 -1.084694 -0.053508 -1.685067 0.975463 0.094456
N 0.081202 -1.536960 0.002190 0.092592 -0.137208 0.335542
C -1.059196 -0.716530 0.215526 -0.218277 -0.038262 -2.180765
N -0.721524 0.616008 0.408413 0.260241 1.004617 0.634294
C 0.505293 1.146594 0.018825 1.898306 2.281527 -1.211939
O -2.203905 -1.070119 -0.071988 0.560984 -0.321690 1.046412
O 0.675336 2.313283 -0.422101 -1.203979 -1.075260 1.101650
H 2.164159 -1.860691 -0.219917 0.078780 0.038244 0.023911
H -0.176192 -2.447755 -0.391713 0.165984 0.197229 0.285900
H -1.438023 1.353072 0.504423 -0.122357 -0.763231 -0.283045
H 2.641514 0.567351 -0.089284 1.475751 1.155146 -0.143550
12
Properties=species:S:1:pos:R:3:forces:R:3 energy=-11279.357011146119
C 1.654165 0.213189 -0.028055 0.008686 -2.411319 0.022247
C 1.348981 -1.124858 -0.085723 1.190302 0.288337 0.888583
N 0.032359 -1.498571 -0.032531 -0.662669 -1.810149 0.194621
C -1.074475 -0.664147 0.093016 -0.985572 0.820858 -0.787022
N -0.722201 0.625237 -0.298755 3.406819 -3.838785 0.987107
C 0.605518 1.136467 -0.035328 -1.664919 0.932963 -1.357316
O -2.203796 -1.093659 0.367375 1.205416 0.448573 -0.282705
O 0.708997 2.342954 -0.022450 0.429438 1.670018 0.448134
H 2.209173 -1.858640 0.031983 -1.492660 0.394132 -0.434553
H -0.375426 -2.442773 -0.010824 1.106376 -0.155660 0.097156
H -1.374229 1.297525 -0.284423 -3.396703 3.294801 0.206727
H 2.657533 0.545116 0.058284 0.855484 0.366232 0.017022
12
Properties=species:S:1:pos:R:3:forces:R:3 energy=-11279.554642601113
C 1.620090 0.304663 -0.157331 0.314046 2.391720 -0.658311
C 1.367178 -1.004124 -0.055399 1.231135 -3.009420 0.780973
N 0.131412 -1.568341 0.204626 0.801825 0.106505 -0.242510
C -1.001682 -0.785002 0.112451 -2.255274 -1.506097 -0.176493
N -0.732703 0.561114 -0.172078 -0.011313 0.061643 0.056959
C 0.518371 1.284033 -0.168379 -0.310236 -0.097457 1.428103
O -2.131301 -1.333150 0.213087 1.661289 1.697307 -0.113493
O 0.576565 2.522743 -0.026909 -0.175564 -1.989410 -0.803797
H 2.116807 -1.864307 -0.045790 -0.295911 1.592050 -0.101662
H 0.056985 -2.597335 0.388683 -0.254620 1.367836 -0.314800
H -1.556851 1.126412 -0.282017 -0.632459 0.370879 0.107786
H 2.581245 0.837797 -0.268993 -0.072919 -0.985555 0.037245
12
Properties=species:S:1:pos:R:3:forces:R:3 energy=-11279.537473844020
C 1.655059 0.203301 -0.194570 -0.207134 0.086947 1.170577
C 1.443805 -1.128106 0.058622 -1.612186 1.265118 -1.584404
N 0.098360 -1.535614 0.202701 0.162825 -0.948010 -0.265674
C -1.112391 -0.682930 0.035763 0.885338 -1.507758 1.098864
N -0.759500 0.669133 0.047773 0.104862 -1.689465 -0.180935
C 0.545740 1.193532 -0.072367 0.725388 -1.543045 -0.312281
O -2.251089 -1.156205 0.048559 1.389057 0.716089 -0.245669
O 0.721386 2.384020 -0.128889 0.077455 1.725307 0.028304
H 2.185084 -1.900094 -0.212938 -0.270172 0.152240 0.767784
H 0.010618 -2.581322 0.244712 -0.723800 1.406217 -0.104975
H -1.544051 1.297369 0.044189 -0.380788 0.630865 -0.067461
H 2.644135 0.671353 -0.227277 -0.150843 -0.294505 -0.304128
12
Properties=species:S:1:pos:R:3:forces:R:3 energy=-11279.153076143595
C 1.694395 0.172220 -0.079733 -1.003613 0.331053 -1.442746
C 1.252297 -1.120884 -0.091036 0.948834 -1.750649 1.467231
N -0.008311 -1.646016 0.065085 0.884133 4.534470 -0.367979
C -1.062912 -0.716765 0.080970 -1.548875 -0.257986 0.017810
N -0.683292 0.607866 -0.112389 -1.228342 2.012342 0.443591
C 0.698426 1.266144 -0.127876 -1.915680 -0.943026 0.900265
O -2.232210 -1.090989 0.244941 0.810790 0.392698 -0.134865
O 0.713941 2.483031 -0.024039 0.735235 -0.813669 -0.469885
H 2.027729 -1.876004 0.120008 -0.082512 0.048958 -0.769164
H -0.249572 -2.584320 0.066587 -0.337822 -2.362423 0.098735
H -1.549094 1.308692 0.009665 2.502225 -1.871586 -0.373900
H 2.712854 0.239919 -0.453434 0.235628 0.679819 0.630906
12
Properties=species:S:1:pos:R:3:forces:R:3 energy=-11279.300834713711
C 1.589316 0.297971 -0.366540 0.196569 1.582111 -0.877192
C 1.430052 -0.942058 0.077631 -0.625049 -2.498636 -0.378157
N 0.166327 -1.470914 0.292510 -0.388181 0.789327 -0.122766
C -1.040524 -0.779157 0.000108 1.733409 0.723765 1.696403
N -0.842840 0.606533 -0.139874 1.986324 -0.749182 -0.477583
C 0.480268 1.196917 -0.169763 -1.216295 1.721985 0.757879
O -2.080895 -1.350968 0.155796 -2.063655 -0.520509 -0.426921
O 0.645331 2.410292 0.063014 -0.565456 -1.220819 -0.686272
H 2.110767 -1.779910 0.148635 1.033807 0.323304 -0.085857
H 0.016309 -2.397379 0.705906 0.144949 0.343751 -0.291549
H -1.620092 1.237131 -0.071067 -0.670303 0.299172 0.045973
H 2.379237 0.834064 -0.915428 0.433880 -0.794267 0.846042
12
Properties=species:S:1:pos:R:3:forces:R:3 energy=-11279.335510725081
C 1.725166 0.195643 -0.052966 -3.066010 -1.937556 -0.086464
C 1.363419 -1.161780 -0.005743 0.183373 2.076380 -0.640230
N -0.008202 -1.518337 -0.030519 1.058954 -1.317365 -0.265787
C -1.140768 -0.632499 0.074477 1.266743 -1.318295 0.375852
N -0.693673 0.683732 0.203846 1.206337 -2.732249 -0.678000
C 0.584468 1.142230 -0.124496 2.362499 0.909256 1.310985
O -2.246376 -1.147030 0.131845 -0.135693 1.083751 -0.137705
O 0.747611 2.367824 -0.198257 -0.252280 -0.354948 -0.464729
H 2.198740 -1.893164 -0.075758 -1.083606 -0.147552 0.268272
H -0.281227 -2.537613 -0.171249 0.402192 1.746669 0.354831
H -1.248128 1.469226 0.172936 -2.681744 1.996761 0.094535
H 2.700528 0.620258 0.013353 0.739235 -0.004850 -0.131559
12
Properties=species:S:1:pos:R:3:forces:R:3 energy=-11278.687434719413
C 1.632185 0.273574 0.038598 0.470280 -0.616890 -0.847799
C 1.340084 -1.056262 0.180373 3.673357 -2.970010 -1.313285
N 0.107211 -1.588837 0.121790 -1.219355 0.260807 -0.688318
C -0.960612 -0.665457 0.011508 -4.119649 -6.102981 1.142207
N -0.807142 0.599600 0.065719 1.503839 5.732684 -0.880380
C 0.511026 1.164331 -0.148154 -0.093222 2.958949 1.133016
O -2.101890 -1.155263 0.067833 -0.211475 -0.269937 -0.658335
O 0.635483 2.400639 -0.269808 -0.362740 -1.337872 -0.370548
H 2.132855 -1.969198 0.137398 -1.229971 2.498897 0.329260
H -0.149422 -2.573965 -0.226708 0.639917 1.913187 1.017274
H -1.692608 1.238529 -0.035454 2.146918 -1.533633 0.250808
H 2.652857 0.665326 -0.257798 -1.197898 -0.533200 0.886100
12
Properties=species:S:1:pos:R:3:forces:R:3 energy=-11278.587227453498
C 1.576405 0.166416 -0.159291 0.922268 2.243912 1.515084
C 1.269248 -1.123615 -0.165573 -0.425697 0.814996 -0.147608
N -0.028795 -1.463970 -0.232286 0.572281 2.351373 -0.229369
C -1.141350 -0.609308 0.068280 0.998910 -4.740098 1.160730
N -0.784300 0.690022 0.232896 -1.159110 1.536564 0.358900
C 0.564661 1.262798 -0.043285 1.758372 -2.384514 -0.750006
O -2.126832 -1.333640 0.377993 -0.042136 3.043454 -0.641979
O 0.954372 2.400366 -0.184306 -1.715242 0.943262 0.644231
H 2.088595 -1.780139 -0.014348 0.277826 -1.466078 -0.157738
H -0.267372 -2.368121 -0.424358 -1.149294 -3.091576 -0.352844
H -1.556716 1.167486 0.740188 0.762047 0.524342 -0.585586
H 2.609155 0.422602 0.186926 -0.800223 0.224363 -0.813814
12
Properties=species:S:1:pos:R:3:forces:R:3 energy=-11278.974016534017
C 1.614311 0.182599 0.046296 0.190073 1.748559 0.208812
C 1.386315 -1.136387 0.037816 1.034282 -1.428236 -1.332680
N 0.074922 -1.600999 -0.068998 -0.094004 -2.912472 0.863344
C -1.009881 -0.690627 0.147601 1.093433 -0.535844 -2.941471
N -0.705347 0.609976 -0.350774 -1.753752 -1.556954 1.398159
C 0.515378 1.164711 -0.144995 2.018184 1.706065 1.372808
O -2.155528 -0.997927 0.325801 -1.127796 -0.818106 1.115413
O 0.618928 2.400237 -0.034429 0.346544 -0.863799 -0.366542
H 2.287922 -1.847187 -0.188707 -1.879680 0.829781 1.044049
H -0.088297 -2.709241 0.042864 0.108339 3.430003 -0.178875
H -1.491199 1.178211 -0.016436 0.104786 0.548161 -0.622981
H 2.580884 0.606915 0.335276 -0.040407 -0.147157 -0.560036
12
Properties=species:S:1:pos:R:3:forces:R:3 energy=-11279.377769873332
C 1.705665 0.146897 -0.119431 0.387579 -0.655588 -0.427327
C 1.296170 -1.148992 0.052914 -0.154131 1.270435 -0.850590
N -0.038396 -1.499673 -0.107801 1.398795 0.643696 -0.166616
C -1.140213 -0.650013 0.012889 0.789689 1.696033 0.379724
N -0.747513 0.685065 -0.177710 0.065808 0.746715 0.122210
C 0.667494 1.146757 -0.178636 -1.537736 1.331944 1.153307
O -2.198856 -1.125919 0.375510 -0.711980 0.495428 -0.282997
O 0.794113 2.360124 0.015882 0.411255 -0.563982 -0.648554
H 2.009595 -1.934805 0.249771 0.004730 -0.466567 0.000339
H -0.335689 -2.273139 0.399810 -0.318603 -2.613728 0.829054
H -1.374736 1.516878 0.074166 0.774968 -1.687822 -0.484779
H 2.783824 0.442223 -0.203117 -1.110374 -0.196563 0.376228
12
Properties=species:S:1:pos:R:3:forces:R:3 energy=-11279.635172230815
C 1.601565 0.213314 0.059066 2.574924 0.028961 -0.262203
C 1.379273 -1.120825 -0.041890 -0.714848 -0.044546 0.127429
N 0.076169 -1.576163 -0.030680 -1.138009 0.281049 -0.096607
C -1.071326 -0.708054 0.003974 2.547218 0.048562 0.308925
N -0.722602 0.614364 -0.262490 -1.724309 1.175683 0.917163
C 0.543369 1.183151 -0.012269 0.299637 2.457994 -1.025729
O -2.157386 -1.117071 0.301450 -1.586886 -0.420894 0.048905
O 0.685991 2.440793 -0.064608 -0.292735 -2.420861 0.523819
H 2.117776 -1.920564 -0.206761 0.051928 0.489164 0.406338
H -0.165654 -2.454199 0.420973 0.197754 -0.372908 -0.307543
H -1.510643 1.302290 -0.062868 1.038524 -1.007868 -0.598400
H 2.669724 0.578992 0.055441 -1.253197 -0.214335 -0.042097
12
Properties=species:S:1:pos:R:3:forces:R:3 energy=-11279.625877708182
C 1.661692 0.223545 -0.217899 -0.724300 -1.061713 0.845159
C 1.312744 -1.085029 0.008609 2.544887 0.829493 -0.538250
N 0.059742 -1.513781 0.134659 -1.603334 -0.738520 0.511249
C -1.082473 -0.690072 0.081253 -0.152840 -0.528150 -0.357510
N -0.739652 0.625462 0.030310 -0.905729 0.687758 -0.500729
C 0.598924 1.151713 -0.096151 -1.095422 2.332641 0.171896
O -2.218924 -1.153274 0.049680 0.324034 0.216489 0.312685
O 0.756743 2.376771 -0.053263 -0.223588 -0.330405 -0.138307
H 2.080642 -1.854474 -0.001656 0.064293 -0.214901 0.313244
H -0.137798 -2.372475 0.632804 0.096569 -0.568083 -0.356583
H -1.598290 1.220257 -0.089412 1.351815 -0.095792 0.197707
H 2.632726 0.694905 -0.107797 0.323613 -0.528815 -0.460560
12
Properties=species:S:1:pos:R:3:forces:R:3 energy=-11279.222221468059
C 1.640996 0.184134 -0.219011 -0.580688 0.889628 0.680371
C 1.407096 -1.120230 0.048886 -1.377549 -0.425512 -0.868379
N 0.033079 -1.521147 0.194944 3.095609 -1.801025 -0.249740
C -0.998921 -0.652478 0.063042 -1.804158 -1.052165 0.987118
N -0.613930 0.546906 0.539674 1.711534 1.535713 -0.069798
C 0.543700 1.167067 -0.015270 0.574638 -2.326237 -0.372640
O -2.140716 -0.994554 -0.212168 -0.165314 0.001381 -0.210451
O 0.497650 2.323721 -0.343310 0.467677 1.637286 -0.035665
H 2.162957 -1.925993 -0.053423 -0.583702 0.406936 0.155570
H -0.197865 -2.502474 0.054441 0.035129 0.022087 -0.087140
H -1.261047 1.271065 0.633589 -2.182823 1.217835 0.047169
H 2.552665 0.620419 -0.569766 0.809649 -0.105928 0.023587
12
Properties=species:S:1:pos:R:3:forces:R:3 energy=-11279.388117387203
C 1.606916 0.291910 -0.148760 1.231487 4.130500 -0.854023
C 1.436696 -0.989765 -0.030003 0.217392 -2.736168 -0.092344
N 0.189411 -1.482189 0.181824 -1.352016 -2.202139 -0.180186
C -1.049910 -0.798297 0.133428 2.474394 0.945503 -0.098496
N -0.758139 0.509534 0.253519 0.978278 3.684378 0.229586
C 0.516096 1.244176 -0.101911 -1.108412 -1.042352 0.689993
O -2.139633 -1.272591 -0.012255 -1.383865 -1.326514 0.230737
O 0.539959 2.456819 -0.265889 -0.237460 -0.740985 0.220009
H 2.291777 -1.695987 -0.168818 -0.884555 0.274487 0.311896
H -0.008739 -2.456586 0.051099 0.408993 -0.944009 -0.044021
H -1.459628 1.135793 0.634961 -0.525383 0.106481 -0.515087
H 2.565961 0.738282 -0.399141 0.181147 -0.149182 0.101937
12
Properties=species:S:1:pos:R:3:forces:R:3 energy=-11279.198266067453
C 1.677751 0.303229 0.106250 -2.680992 -1.875497 -0.515193
C 1.393161 -1.056127 0.031673 0.308863 -0.741746 0.199363
N 0.081031 -1.529273 0.020478 0.054466 -1.036270 -0.220038
C -1.055239 -0.696416 0.067345 3.603949 -0.807331 0.017116
N -0.768124 0.649469 -0.109736 -2.677353 -1.872342 -0.165039
C 0.478706 1.195199 -0.070353 2.632917 1.239180 -0.282577
O -2.076026 -1.270285 0.254405 -3.799058 -0.168218 0.075663
O 0.627133 2.399313 -0.247483 -0.107726 0.600770 -0.040431
H 2.072030 -1.956573 0.021338 -0.001298 1.348359 -0.025523
H -0.251063 -2.572097 -0.038657 1.311380 2.426848 0.329617
H -1.631444 1.087190 -0.474097 0.860691 0.861160 0.473082
H 2.635035 0.774386 0.012327 0.494160 0.025088 0.153961
12
Properties=species:S:1:pos:R:3:forces:R:3 energy=-11279.420298619340
C 1.585654 0.212382 -0.203504 2.892145 -3.876272 -0.559833
C 1.270390 -1.132610 -0.208339 1.878467 1.145553 -0.417394
N 0.045137 -1.507144 0.057214 -2.033619 -0.078776 0.245181
C -1.074766 -0.688475 0.097519 2.091078 1.897954 0.867693
N -0.697180 0.615238 0.213244 -0.202238 2.550805 0.086150
C 0.637793 1.158532 -0.005608 -3.233208 1.413375 0.127759
O -2.187682 -1.082748 0.141712 -3.331217 -1.576040 -0.129056
O 0.765827 2.364785 -0.098505 0.152366 1.171554 0.226869
H 1.854791 -2.026190 -0.462553 0.788918 0.756609 0.105435
H -0.208891 -2.437741 -0.053243 -0.540628 -2.374443 -0.189430
H -1.433978 1.378286 0.300247 0.953217 -1.383051 -0.216110
H 2.593754 0.494185 -0.418215 0.584719 0.352732 -0.147264
12
Properties=species:S:1:pos:R:3:forces:R:3 energy=-11279.406880531027
C 1.648767 0.177673 -0.084314 -0.912078 1.787442 -0.226289
C 1.374737 -1.129627 0.104941 1.165954 -1.067870 0.939090
N 0.104908 -1.620525 0.146058 -1.521797 -1.380690 0.070200
C -0.979441 -0.711240 0.098713 -2.368590 -2.060869 -0.584319
N -0.686133 0.604344 0.152460 0.865723 1.732027 -0.427142
C 0.545804 1.250481 -0.133647 0.564732 -1.307795 0.500080
O -2.157806 -1.099974 -0.008274 1.130956 -0.024877 0.270264
O 0.516852 2.474955 -0.266610 0.925027 -0.982044 -0.145974
H 2.203272 -1.826677 0.459505 -0.971636 0.636164 -0.996769
H -0.184573 -2.673955 0.083380 0.818321 2.576057 0.245261
H -1.435430 1.284899 -0.004354 -0.414724 -0.519403 0.257719
H 2.680918 0.429574 -0.154928 0.718113 0.611859 0.097879
12
Properties=species:S:1:pos:R:3:forces:R:3 energy=-11279.360188419674
C 1.650719 0.226138 -0.177930 0.172407 1.851309 -0.065594
C 1.391658 -1.072226 0.184642 -0.891683 -0.480504 -0.398207
N 0.099147 -1.641596 0.175885 0.268310 2.997861 0.053124
C -1.077947 -0.720988 0.038543 1.559777 -2.309063 0.324467
N -0.720668 0.573896 -0.132970 0.760534 1.185615 0.016854
C 0.595724 1.249559 -0.124007 -1.583138 -0.339417 -0.316905
O -2.202442 -1.171771 0.083802 -0.460336 0.073527 0.012874
O 0.627798 2.493440 -0.089462 0.345527 -2.099937 -0.171478
H 2.150639 -1.786339 0.499981 0.316555 0.021973 -0.428000
H -0.073183 -2.530152 0.633371 -0.113284 -0.063798 0.036094
H -1.519272 1.187328 -0.186372 -0.400292 0.485301 0.012863
H 2.567470 0.770798 -0.516990 0.025625 -1.322867 0.923908
12
Properties=species:S:1:pos:R:3:forces:R:3 energy=-11279.661564211141
C 1.688069 0.236961 -0.007070 -1.185951 0.489208 0.295035
C 1.362175 -1.095662 0.057400 0.082661 1.340702 0.508275
N 0.079874 -1.576571 0.229676 -0.275585 -1.090503 -0.570120
C -1.052108 -0.728942 0.059357 0.537915 -0.944491 0.251111
N -0.639377 0.618044 -0.013478 -4.000922 -1.752725 0.413920
C 0.552596 1.229829 -0.042585 2.520444 -0.712166 -0.859083
O -2.202606 -1.161064 -0.000061 0.863884 0.775519 0.072265
O 0.569805 2.431277 -0.255480 0.772833 0.860974 0.342470
H 2.101869 -1.859580 0.058586 0.790137 -0.623307 0.016335
H -0.044141 -2.637672 0.228711 -0.186390 2.004052 -0.077104
H -1.445143 1.245641 -0.059520 0.042402 0.111790 -0.138926
H 2.686661 0.673092 0.022657 0.038570 -0.459052 -0.254179
12
Properties=species:S:1:pos:R:3:forces:R:3 energy=-11278.994132966576
C 1.744785 0.143619 -0.185507 0.683502 2.604402 -0.679073
C 1.360027 -1.099376 -0.105631 -4.447834 -0.530971 1.318682
N -0.043498 -1.473152 0.242418 3.755513 -1.529675 -1.826949
C -1.149174 -0.635936 0.038871 3.448800 -0.272955 0.672822
N -0.656711 0.621604 -0.141475 -0.803493 -0.353939 -0.761555
C 0.662947 1.118703 -0.173776 -0.790837 -1.186586 1.316056
O -2.248183 -1.038403 0.223023 -3.128372 -0.297590 -0.137933
O 0.685469 2.295489 0.035063 1.528045 3.140117 -0.227084
H 2.000162 -1.889635 -0.142073 1.748626 -2.485506 0.064378
H -0.150190 -2.455431 -0.048689 -0.634848 0.345372 0.495314
H -1.310916 1.365451 -0.024174 -0.713294 0.837084 -0.021683
H 2.794428 0.495286 -0.209628 -0.645807 -0.269755 -0.212974
12
Properties=species:S:1:pos:R:3:forces:R:3 energy=-11279.437555475701
C 1.620598 0.306139 0.183554 0.545483 -3.348312 -0.945448
C 1.374146 -1.086759 0.028681 2.124521 1.277617 0.709936
N 0.120554 -1.578067 0.075455 -1.405579 -1.560445 -0.772140
C -1.012593 -0.739344 0.032525 -1.997427 0.284726 0.973258
N -0.764024 0.626539 0.002696 2.668116 -2.447296 0.464075
C 0.550190 1.214911 -0.000478 -1.849539 -0.166483 -0.944843
O -2.188469 -1.135945 0.119149 1.365088 -0.390526 -0.475637
O 0.656112 2.366842 -0.352292 0.359459 1.725515 0.172495
H 2.177262 -1.903977 -0.042368 -0.916886 1.456922 0.018252
H -0.071921 -2.603927 -0.131595 0.215677 1.687270 0.501781
H -1.604814 1.126144 -0.026425 -1.399116 1.529178 -0.150772
H 2.590313 0.701339 -0.097656 0.290203 -0.048167 0.449042
12
Properties=species:S:1:pos:R:3:forces:R:3 energy=-11279.519212696019
C 1.566016 0.178149 -0.149271 3.187483 1.638436 -0.479612
C 1.345130 -1.114408 -0.030355 -1.581504 -1.432110 0.633184
N 0.039749 -1.592783 0.024233 -0.194368 -1.172816 0.393758
C -1.070895 -0.727527 0.040321 -2.557701 -0.240130 1.166250
N -0.721503 0.633928 -0.044952 -0.597065 1.950818 -0.700594