12
Properties=species:S:1:pos:R:3:forces:R:3 energy=-11278.951578620783
C 1.595892 0.183762 0.033887 1.676282 1.072698 -0.018104
C 1.320565 -1.107997 -0.111291 2.144232 -2.044040 -0.389315
N 0.091344 -1.645239 -0.070047 -3.534816 3.430274 -0.071038
C -1.065283 -0.726163 0.156442 2.001879 0.516982 -1.187398
N -0.727495 0.648621 0.102559 -0.413892 -1.506970 0.341700
C 0.498558 1.149147 -0.031224 4.736663 4.688782 -0.541860
O -2.228967 -0.986718 0.172427 -1.531245 -1.681231 0.559128
O 0.818277 2.404194 -0.249291 -1.957786 -3.646756 0.841874
H 2.062669 -1.903135 -0.398801 -0.131433 0.878123 0.719889
H -0.020047 -2.553208 0.264430 -0.482605 -2.100999 0.410442
H -1.500639 1.277099 0.212150 -0.718556 0.463703 -0.154426
H 2.691864 0.501694 0.118832 -1.788724 -0.070567 -0.510892
12
Properties=species:S:1:pos:R:3:forces:R:3 energy=-11279.190449532514
C 1.654580 0.210060 -0.088451 -0.700590 0.989593 -0.084734
C 1.334347 -1.110960 0.050260 -0.122544 1.017901 -0.751454
N 0.077201 -1.611240 0.164523 -1.523193 0.038182 -0.107362
C -1.082889 -0.771178 0.039375 1.003629 1.302856 1.019837
N -0.803948 0.622990 0.174436 -0.120042 0.071228 -0.070952
C 0.628200 1.328390 -0.018702 -0.849418 -2.993493 -0.582411
O -2.221724 -1.194495 -0.038370 0.006665 -0.441135 -0.149140
O 0.774649 2.501132 -0.231960 -0.300008 0.139520 0.409964
H 2.120839 -1.803471 -0.140384 0.535397 -0.866830 0.114251
H -0.147218 -2.620809 0.119530 0.385209 0.691873 0.027617
H -1.774921 1.094830 0.283250 2.276787 -0.235149 -0.453441
H 2.673080 0.417470 -0.474826 -0.591894 0.285455 0.627827
12
Properties=species:S:1:pos:R:3:forces:R:3 energy=-11279.237249442971
C 1.698403 0.228392 -0.050758 -0.261849 3.444213 -0.757066
C 1.319117 -1.015719 0.059234 2.380622 -4.799598 -1.081545
N 0.066671 -1.535892 0.095941 0.307481 2.350313 -0.025954
C -1.132470 -0.653978 0.045591 3.229157 -2.606612 0.956828
N -0.765938 0.625815 0.164311 1.122590 1.933259 -0.344811
C 0.605958 1.168688 -0.085471 -0.603695 1.688334 0.375560
O -2.162747 -1.240794 0.051771 -3.229097 -0.167252 -0.263944
O 0.691579 2.386353 -0.248819 -0.184228 -0.596048 0.017714
H 2.203284 -1.736689 -0.134678 -1.611075 0.360376 0.690160
H -0.044270 -2.524855 0.178539 -0.509835 -0.652668 -0.016964
H -1.470158 1.377022 0.227121 0.173122 -0.473633 -0.219075
H 2.698614 0.596187 -0.387411 -0.813193 -0.480685 0.669096
12
Properties=species:S:1:pos:R:3:forces:R:3 energy=-11279.314453400355
C 1.619633 0.208312 -0.409804 -0.348416 -1.501780 1.095479
C 1.302150 -1.092855 -0.173683 -1.280864 0.522864 -0.299263
N 0.018787 -1.520361 0.086065 0.341535 0.432507 -0.822961
C -1.090520 -0.732354 0.065083 -0.116294 1.685162 2.245795
N -0.602204 0.586798 0.389891 -1.933624 -0.140096 -1.252963
C 0.598178 1.164588 -0.072000 0.480295 2.375925 -0.078429
O -2.269364 -1.075216 0.124063 1.010507 0.163031 -0.516282
O 0.769281 2.406058 -0.097256 -0.517785 -1.559299 0.116962
H 1.865590 -1.972470 -0.244235 1.869983 -0.815572 -0.144327
H -0.134406 -2.467615 0.247188 -0.346498 -2.244732 0.038947
H -1.412557 1.205424 0.422079 0.196370 0.568517 0.138420
H 2.651562 0.472858 -0.431202 0.644791 0.513472 -0.521379
12
Properties=species:S:1:pos:R:3:forces:R:3 energy=-11279.169076210419
C 1.604946 0.280309 -0.289214 -0.633662 2.136169 0.558355
C 1.353389 -0.987003 0.031208 3.236769 -1.923720 -0.166309
N 0.146137 -1.535252 0.111459 -2.970020 -0.728597 0.274276
C -0.999876 -0.809361 0.088065 -0.251130 2.641694 -1.103724
N -0.737652 0.623442 -0.257432 -2.390781 -2.913129 0.872778
C 0.480377 1.279018 -0.168322 1.015359 -4.216993 -0.405967
O -2.110235 -1.296966 0.282093 0.548977 0.654664 -0.096037
O 0.613567 2.423419 0.077964 0.221086 3.795907 0.420224
H 2.175792 -1.721913 0.205491 -0.413727 0.581404 -0.165786
H -0.241611 -2.462165 0.277926 1.518774 -0.864725 0.198317
H -1.598303 1.055670 0.053193 -0.171954 1.137288 -0.188551
H 2.580684 0.743471 -0.194559 0.290309 -0.299961 -0.197576
12
Properties=species:S:1:pos:R:3:forces:R:3 energy=-11279.128967444267
C 1.635574 0.258361 -0.062546 1.214930 1.154972 -0.907750
C 1.449790 -1.067886 0.060561 -1.941924 -0.653850 0.717071
N 0.123720 -1.569091 0.110405 -0.220087 0.555179 0.197078
C -1.069479 -0.739971 0.064674 2.912233 -1.744895 -0.079320
N -0.736245 0.534581 -0.201969 -0.706016 2.436019 -1.134010
C 0.480230 1.206215 -0.143546 2.380404 -1.554072 0.698888
O -2.209436 -1.068598 0.213184 -1.546982 -1.366129 0.031630
O 0.664820 2.403983 -0.033095 -0.876566 0.693039 -0.571421
H 2.103298 -1.887793 0.393491 0.591760 0.593911 -0.736714
H 0.071202 -2.563531 -0.058586 -0.657610 -0.277228 0.381935
H -1.519479 0.985324 -0.668550 -0.213056 0.767602 0.577445
H 2.632071 0.735680 -0.290961 -0.937086 -0.604547 0.825170
12
Properties=species:S:1:pos:R:3:forces:R:3 energy=-11279.288494416427
C 1.654134 0.254708 0.223427 2.206691 1.553917 -1.840264
C 1.396765 -1.045997 -0.020202 0.094040 -1.706775 1.830887
N 0.093539 -1.515750 0.038517 0.376242 -1.625293 0.020484
C -1.033943 -0.724296 0.177511 -3.082810 -0.713710 -2.215354
N -0.763579 0.626428 0.037178 -0.861216 1.151525 0.771041
C 0.573037 1.223314 -0.076157 -1.137498 -1.088210 0.801321
O -2.204309 -1.230048 0.079840 2.727443 1.209383 1.040106
O 0.644406 2.385425 -0.389520 0.518982 0.955669 -0.120428
H 2.195133 -1.850179 0.062014 -0.939802 0.952035 -0.455944
H -0.121605 -2.539721 0.004566 0.292747 1.151318 -0.031793
H -1.631347 1.287526 0.061406 2.045725 -1.426998 -0.227485
H 2.768150 0.603982 0.104493 -2.240544 -0.412861 0.427429
12
Properties=species:S:1:pos:R:3:forces:R:3 energy=-11279.211194659840
C 1.642125 0.233750 -0.090319 1.575944 0.753330 -0.350295
C 1.331193 -1.067851 0.114610 1.600264 -1.212247 0.238151
N 0.056193 -1.594431 -0.055201 -0.503083 0.853582 0.994236
C -1.103539 -0.734296 0.067889 1.002651 -0.630056 -0.643553
N -0.707999 0.670704 -0.084835 -2.712596 -1.480697 0.789637
C 0.549403 1.253473 -0.200973 2.353185 -1.677979 1.119605
O -2.217510 -1.246017 0.224520 1.364683 1.712842 -0.008312
O 0.755625 2.446676 -0.100795 -0.514300 0.791122 -0.381289
H 2.140563 -1.839732 0.446923 -1.418752 1.285808 -0.789347
H -0.103650 -2.471027 0.442656 -0.171444 -0.142262 -0.361356
H -1.361258 1.259590 0.439984 -0.269842 0.269691 -0.626155
H 2.760832 0.582036 -0.053022 -2.306710 -0.523135 0.018680
12
Properties=species:S:1:pos:R:3:forces:R:3 energy=-11279.577851607932
C 1.631583 0.175558 -0.105016 -0.094313 0.680503 0.418251
C 1.256161 -1.128979 -0.133846 1.112917 0.640185 -0.639893
N 0.006824 -1.614850 -0.010101 -0.570414 1.356975 0.626251
C -1.041534 -0.700095 0.199277 -1.771430 0.107144 -1.868514
N -0.724551 0.644235 -0.068858 0.953022 0.256380 1.029295
C 0.629282 1.239395 -0.038841 -0.734493 -0.939000 -0.311025
O -2.195375 -1.133845 0.263466 0.534054 0.552064 0.581929
O 0.782544 2.449536 -0.076096 -0.072912 -0.199497 0.113923
H 2.037537 -1.801156 -0.365064 0.723475 -1.259761 -0.044510
H -0.350467 -2.439927 -0.464490 0.263839 -0.735133 0.113477
H -1.480469 1.335362 0.020111 0.068178 -0.395211 0.053579
H 2.696265 0.444255 -0.134883 -0.411923 -0.064649 -0.072762
12
Properties=species:S:1:pos:R:3:forces:R:3 energy=-11279.243307092547
C 1.651662 0.291246 -0.081868 1.490423 1.357444 -0.067000
C 1.444081 -1.014757 0.058858 -1.506401 -0.018981 0.045382
N 0.151306 -1.507704 0.141364 -1.160490 -3.730327 1.108198
C -1.106017 -0.761379 0.028880 1.156703 -0.300505 0.606160
N -0.757416 0.560129 -0.224302 -0.421877 0.056975 -0.909085
C 0.548464 1.174615 -0.138685 -1.010963 0.711683 0.605782
O -2.258975 -1.173431 0.192817 1.776790 -0.005180 -0.489868
O 0.666856 2.387083 -0.007282 -0.459498 0.316132 -0.550708
H 2.221614 -1.726436 0.134100 0.799869 -0.914963 0.183450
H 0.101376 -2.569870 0.477105 -0.315198 2.972668 -1.030038
H -1.475127 1.027534 -0.783378 0.013078 0.566307 0.640147
H 2.602727 0.869383 -0.039626 -0.362436 -1.011254 -0.142421
12
Properties=species:S:1:pos:R:3:forces:R:3 energy=-11279.414930964020
C 1.562875 0.140742 -0.134596 1.100182 -0.058127 -0.174786
C 1.257363 -1.183007 -0.081560 2.087779 0.447473 0.062042
N 0.005645 -1.603590 -0.071536 -0.421448 -0.512892 -0.419748
C -0.982527 -0.656061 0.030312 -2.139441 -0.753896 0.785621
N -0.684992 0.680171 -0.082923 -0.941013 -0.358923 -0.072955
C 0.557975 1.206006 -0.069379 1.845721 -1.291964 -0.412451
O -2.091649 -1.046972 0.319046 -1.962860 -0.145988 0.014455
O 0.698968 2.403531 0.019799 0.718431 1.612066 0.085534
H 1.974199 -1.993803 0.068324 0.416625 0.319438 -0.428887
H -0.210046 -2.608956 -0.130557 -0.437642 0.781320 0.305028
H -1.368487 1.404006 0.144625 -0.671495 -0.532340 -0.056731
H 2.605009 0.364534 -0.275230 0.405160 0.493830 0.312879
12
Properties=species:S:1:pos:R:3:forces:R:3 energy=-11279.421181211994
C 1.647394 0.303398 0.054779 0.766949 -2.232991 -0.600085
C 1.395733 -1.075015 0.047917 0.433238 -0.250063 0.193837
N 0.125608 -1.601511 0.083166 -1.177241 3.207577 -0.100305
C -1.011935 -0.811883 0.044308 -0.499114 3.567798 0.805868
N -0.745174 0.629988 0.110658 1.929034 -3.038733 -0.200235
C 0.534707 1.235082 -0.059898 -0.869491 1.779440 -0.298757
O -2.174901 -1.181356 0.056135 0.313228 -0.857887 -0.220995
O 0.604325 2.462354 -0.297395 0.223828 -1.613542 0.463396
H 2.070912 -1.970654 0.045771 0.359790 1.430209 -0.044437
H -0.231390 -2.501763 0.028395 0.441136 -2.940873 -0.112743
H -1.581223 1.163122 0.111271 -0.890091 0.979115 -0.170989
H 2.707160 0.628223 -0.089160 -1.031267 -0.030051 0.285446
12
Properties=species:S:1:pos:R:3:forces:R:3 energy=-11279.616176888927
C 1.645845 0.342172 -0.045629 1.316356 -2.060047 -0.373553
C 1.457318 -1.035744 -0.087297 -2.410205 1.902395 1.878172
N 0.145160 -1.506390 0.115737 0.548563 -0.832593 -0.425784
C -1.063009 -0.758837 0.138481 1.681619 -0.825561 -0.970781
N -0.720426 0.576572 -0.031590 -1.864939 -0.716130 0.626655
C 0.542858 1.234838 -0.094700 -1.359595 0.415400 -0.130240
O -2.158305 -1.322068 0.170960 0.661130 1.060574 0.356299
O 0.516054 2.452034 -0.208618 0.595823 0.392214 0.143967
H 2.217042 -1.762096 0.126145 0.557868 -0.359648 -0.377167
H -0.035160 -2.503511 0.205470 0.191319 -0.108771 -0.134587
H -1.559625 1.129168 0.108699 0.091516 0.876866 -0.302375
H 2.661384 0.714021 0.048484 -0.009455 0.255300 -0.290607
12
Properties=species:S:1:pos:R:3:forces:R:3 energy=-11279.274210735319
C 1.749338 0.148303 0.079174 -3.615148 0.378162 -0.024456
C 1.323889 -1.100402 -0.120988 -0.938082 -1.312074 0.313914
N -0.044856 -1.512007 -0.116282 1.620039 0.034545 0.023934
C -1.113423 -0.677125 0.101813 0.495180 1.446183 -0.665827
N -0.662157 0.619667 -0.129151 0.158497 -1.744544 0.944858
C 0.671364 1.122681 0.024428 -1.608274 1.499646 -1.292979
O -2.269379 -1.013901 0.328438 0.451616 -0.126615 0.011532
O 0.722912 2.333105 -0.171430 1.243145 0.408779 0.682156
H 2.080501 -1.829553 -0.326203 0.030323 -1.073503 0.041521
H -0.352360 -2.424426 0.121654 0.519457 -1.702841 0.010311
H -1.417266 1.241598 -0.001397 -0.764643 1.685790 0.035856
H 2.709313 0.508704 0.116358 2.407892 0.506471 -0.080820
12
Properties=species:S:1:pos:R:3:forces:R:3 energy=-11279.335827222445
C 1.628238 0.274258 0.113085 1.151273 -1.826171 -0.216462
C 1.406365 -1.083206 -0.017518 -1.506765 2.563807 0.788545
N 0.160158 -1.580653 0.068865 -1.035335 3.900260 1.012319
C -1.033664 -0.701304 0.122017 1.363968 -0.498117 -0.488822
N -0.769757 0.618872 0.018759 1.568583 0.432608 0.041350
C 0.572988 1.211576 -0.058849 -2.324758 -0.506732 -0.054043
O -2.135405 -1.167977 0.159227 -1.642083 -1.152745 0.116525
O 0.531198 2.386964 -0.331518 1.232692 1.680770 -0.099293
H 2.198706 -1.748425 -0.081239 1.544643 -1.449554 -0.146373
H -0.096720 -2.425232 -0.276560 -0.757333 -3.641583 -1.104836
H -1.524218 1.283434 -0.224312 0.317106 -0.527478 0.349478
H 2.687363 0.465347 0.205890 0.088008 1.024934 -0.198387
12
Properties=species:S:1:pos:R:3:forces:R:3 energy=-11279.507134296555
C 1.615937 0.229368 -0.005126 1.938311 -0.188537 -0.754624
C 1.314976 -1.079594 0.060522 0.614032 -1.604479 -1.053155
N 0.062864 -1.602368 -0.089933 -1.181242 1.039548 0.398114
C -1.062730 -0.727386 0.016844 1.278593 0.575509 0.151677
N -0.717510 0.627546 -0.179081 1.018052 -2.694634 -0.086891
C 0.632619 1.216036 -0.120092 -3.252180 1.378357 0.768413
O -2.166524 -1.139737 0.323137 -0.288801 -0.003964 -0.371456
O 0.673104 2.437098 -0.034198 0.768445 -0.055448 -0.416898
H 2.159005 -1.779809 0.019370 -0.366451 -0.143335 0.198461
H -0.260767 -2.564033 -0.013188 0.720063 -0.251088 0.256389
H -1.552735 1.128395 -0.027570 -0.934019 1.785370 0.184911
H 2.658418 0.477285 -0.258440 -0.314803 0.162702 0.725059
12
Properties=species:S:1:pos:R:3:forces:R:3 energy=-11279.048942010368
C 1.673013 0.232932 -0.149969 -0.082982 -3.164574 -0.481149
C 1.265778 -1.134131 -0.163012 1.611545 2.091575 -0.537962
N 0.014717 -1.653651 -0.257739 -0.053139 7.010426 1.061864
C -1.058778 -0.700613 0.139428 -2.269893 -2.486201 -0.622603
N -0.723971 0.561549 0.067359 2.644943 4.014046 -0.774434
C 0.660874 1.193804 -0.123843 -2.220638 1.207750 1.608871
O -2.230450 -0.987671 0.406454 0.847360 -1.266828 -0.067748
O 0.742306 2.413220 0.009035 -0.091104 -0.511641 -0.631053
H 2.076950 -1.820080 -0.142895 0.602929 -1.011753 -0.109661
H -0.140059 -2.573989 -0.243558 -0.946530 -4.655642 0.315628
H -1.476326 1.278653 0.183894 0.680965 -0.906853 0.050930
H 2.740778 0.525507 -0.205183 -0.723456 -0.320304 0.187317
12
Properties=species:S:1:pos:R:3:forces:R:3 energy=-11278.566301927674
C 1.583637 0.286173 -0.318158 -2.486508 -0.496382 0.266219
C 1.387950 -1.016609 -0.081135 -0.495282 -1.613954 0.312720
N 0.181808 -1.542155 0.420619 -1.991357 1.367726 -1.260625
C -1.010005 -0.717529 0.156493 3.387056 1.107648 2.253176
N -0.777293 0.646384 0.479112 -1.852655 0.125658 -2.503574
C 0.396401 1.201809 -0.162442 2.957825 1.673762 1.536920
O -1.978270 -1.313928 -0.187618 -2.670576 -0.107065 -0.640777
O 0.558715 2.427662 -0.250520 -1.047095 -1.049697 -0.494047
H 2.145271 -1.788866 -0.204502 0.290495 0.097749 0.008126
H -0.365431 -2.276532 -0.061437 1.891000 -1.629109 0.128341
H -1.628254 1.217485 0.164169 1.211321 -0.575567 0.819577
H 2.559575 0.550631 -0.619498 0.805775 1.099231 -0.426056
12
Properties=species:S:1:pos:R:3:forces:R:3 energy=-11279.529746508339
C 1.716419 0.361321 -0.156599 -1.092719 -1.610046 1.183701
C 1.464035 -0.992400 0.036813 -0.105545 0.784542 -1.044522
N 0.180923 -1.563486 0.037163 -0.201364 3.437478 -0.279240
C -1.054360 -0.762750 0.088792 -0.705597 -1.862429 0.149895
N -0.792768 0.538708 -0.165884 1.509544 0.497244 -0.063653
C 0.508524 1.217443 -0.095457 0.408955 -2.398292 -0.723693
O -2.199208 -1.230609 0.287368 2.302870 0.415968 -0.382647
O 0.534702 2.401860 -0.077858 -0.197208 3.179496 0.125230
H 2.304660 -1.690179 -0.014091 -0.241966 -0.205048 0.350974
H 0.062385 -2.463290 0.374235 -0.218837 -2.411900 0.744810
H -1.593180 1.134281 -0.321871 -0.295818 0.393676 0.227445
H 2.756422 0.770262 -0.070265 -1.162316 -0.220688 -0.288301
12
Properties=species:S:1:pos:R:3:forces:R:3 energy=-11279.329891971849
C 1.629333 0.210334 0.082392 1.672489 -0.741276 0.030010
C 1.346738 -1.092080 -0.142809 -1.458167 -0.466950 0.810585
N -0.015028 -1.550258 -0.067888 1.507675 1.252726 0.442190
C -1.150595 -0.703409 0.179779 3.733218 -0.279286 -1.642513
N -0.654709 0.608818 0.087087 -2.524985 1.060593 1.172175
C 0.611273 1.207790 0.056611 0.887171 -0.073033 -1.848640
O -2.285382 -1.101815 0.194353 -0.820807 0.196529 0.467139
O 0.839132 2.365951 -0.317241 -0.929467 -0.152257 1.079735
H 2.203738 -1.791427 -0.266245 -1.071594 -0.030226 -0.071972
H -0.245284 -2.454412 -0.380416 -0.261913 -1.583208 -0.298130
H -1.418533 1.263468 0.177888 -0.360907 0.614609 -0.165540
H 2.688220 0.495821 0.053808 -0.372713 0.201778 0.024961
12
Properties=species:S:1:pos:R:3:forces:R:3 energy=-11279.330274368667
C 1.653428 0.182052 -0.114594 0.874504 -1.625036 0.807737
C 1.333559 -1.134093 0.030816 -0.428136 -0.397579 -0.145222
N -0.026843 -1.469038 -0.037981 1.488486 -3.962495 -0.363070
C -1.158500 -0.697814 0.029212 4.189977 3.132953 1.442757
N -0.708581 0.683193 0.267236 1.152367 -1.897206 -1.080909
C 0.616999 1.179160 -0.079323 -0.683148 -0.789658 0.059575
O -2.240360 -1.142045 0.138895 -3.579927 -0.815039 -0.311033
O 0.851000 2.354057 -0.253466 -0.375712 1.325113 0.005167
H 2.030992 -2.043326 0.225783 -1.051497 1.741224 -0.610498
H -0.192328 -2.514821 -0.144078 -0.159231 1.732556 0.319457
H -1.404041 1.375960 0.211120 -1.355866 1.243405 -0.016700
H 2.699179 0.472957 -0.066462 -0.071816 0.311764 -0.107260
12
Properties=species:S:1:pos:R:3:forces:R:3 energy=-11279.249906237619
C 1.723692 0.287479 0.097004 -0.753592 3.495740 0.211703
C 1.327486 -0.959031 0.012896 2.973510 -3.390497 -0.375689
N 0.095949 -1.453771 -0.122431 0.898155 -0.816046 -0.186934
C -1.050618 -0.771810 0.123018 -0.104504 1.444026 -0.197709
N -0.717823 0.600787 0.245115 1.251846 -1.161794 -0.055415
C 0.596050 1.246078 -0.049384 -1.535374 -0.408802 0.021093
O -2.101469 -1.377150 0.149420 -1.225520 0.580516 0.225056
O 0.474654 2.411882 -0.399820 1.217985 -0.136844 0.376399
H 2.115096 -1.772122 -0.020879 -0.721463 0.796443 0.053821
H 0.048473 -2.388223 -0.477650 -0.567343 -0.743410 0.126930
H -1.394158 1.322256 0.351571 -1.230072 0.426532 0.005518
H 2.754882 0.617891 0.227882 -0.203627 -0.085865 -0.204774
12
Properties=species:S:1:pos:R:3:forces:R:3 energy=-11279.004164883076
C 1.593096 0.362077 0.221302 0.154447 1.754501 -1.326283
C 1.443322 -0.914295 0.004891 -2.100713 -4.491619 0.029450
N 0.141221 -1.598323 -0.196058 0.710356 -0.419985 0.449060
C -1.013545 -0.836359 0.014867 -0.708275 0.554167 2.064707
N -0.729040 0.582179 0.225324 -2.309895 -0.258495 -0.875984
C 0.453640 1.239970 -0.116809 1.413198 1.602858 1.222826
O -2.145053 -1.282182 0.268092 1.460214 0.361992 -0.984927
O 0.595574 2.437166 -0.422828 -0.887003 -1.383457 0.201128
H 2.276834 -1.596314 0.058981 0.195887 -0.430525 -0.107009
H -0.031478 -2.686345 -0.069441 0.792004 2.934595 -0.361990
H -1.620250 1.153823 0.353126 1.380497 -0.834358 -0.494214
H 2.629442 0.687097 0.224319 -0.100717 0.610326 0.183238
12
Properties=species:S:1:pos:R:3:forces:R:3 energy=-11279.197848270931
C 1.685074 0.236215 -0.155475 -1.014718 -3.411713 -0.572120
C 1.251944 -1.131628 -0.179171 3.184898 1.813515 -0.269653
N 0.012424 -1.643961 -0.229589 -0.795698 0.301325 0.799459
C -1.062129 -0.685140 0.138386 -2.594960 -3.053076 -0.434340
N -0.730118 0.577911 0.036275 3.114472 2.452737 -0.725425
C 0.667356 1.188151 -0.122662 -2.274983 1.589653 1.560870
O -2.230162 -1.003388 0.408163 1.181620 -0.787067 -0.090760
O 0.745033 2.405656 0.025376 0.003600 -0.374306 -0.612515
H 2.079181 -1.844402 -0.151021 -0.175853 -0.288938 -0.184506
H -0.069657 -2.704735 -0.224449 -0.507294 1.904244 0.276057
H -1.483614 1.237496 0.212747 0.036341 0.133808 0.072206
H 2.728712 0.543311 -0.234254 -0.157424 -0.280183 0.180727
12
Properties=species:S:1:pos:R:3:forces:R:3 energy=-11278.853382638126
C 1.553070 0.276907 -0.329683 0.879948 0.254789 0.893695
C 1.418888 -0.962298 0.114504 -0.318335 -3.509626 -2.407284
N 0.110209 -1.437694 0.140476 2.080230 -4.103124 1.403602
C -1.029554 -0.740083 0.092012 -2.585840 0.785942 0.375097
N -0.821439 0.645720 0.309227 1.052043 -0.515306 -1.326972
C 0.528267 1.182971 -0.113716 -3.409830 3.051719 0.872582
O -2.078401 -1.396230 -0.038895 0.202197 1.428810 0.164705
O 0.663062 2.410740 -0.168868 -0.220752 -0.638319 -0.152064
H 2.184917 -1.782822 -0.126203 -0.838011 1.178016 1.020495
H -0.111904 -2.490966 0.284831 0.700821 2.234740 -0.392580
H -1.622359 1.307719 0.224338 0.709017 -0.636060 -0.005961
H 2.459210 0.757872 -0.513488 1.748511 0.468419 -0.445315
12
Properties=species:S:1:pos:R:3:forces:R:3 energy=-11279.444028021826
C 1.702479 0.244341 -0.122225 -0.294844 -1.105786 0.291491
C 1.306811 -1.064110 -0.030267 2.621233 -1.671252 0.076272
N 0.015486 -1.476681 0.124301 1.197940 -1.371004 -0.260347
C -1.070644 -0.646017 0.094191 -2.405492 -3.104267 -0.248954
N -0.696898 0.635516 0.135008 -1.360651 1.415213 -0.419027
C 0.583334 1.136744 -0.124143 0.968115 2.738313 1.194271
O -2.184324 -1.235612 0.032530 1.009212 2.101460 0.300334
O 0.689056 2.370021 -0.134375 -0.010695 -0.044143 -0.494001
H 2.092498 -1.911985 -0.068301 -1.298804 1.211609 0.244375
H -0.269055 -2.471766 0.133695 0.455218 0.621122 -0.127598
H -1.422909 1.368639 0.106675 0.264421 -0.354955 0.021996
H 2.752285 0.618506 0.013235 -1.145655 -0.436311 -0.578813
12
Properties=species:S:1:pos:R:3:forces:R:3 energy=-11279.299677123347
C 1.715987 0.229631 -0.037526 -0.563132 -0.890663 0.800289
C 1.379348 -1.173976 -0.009827 -0.843104 4.616145 0.198812
N 0.020066 -1.585242 0.006379 1.998661 -1.505093 0.498334
C -1.097239 -0.732700 0.013971 0.166668 0.236519 0.663358
N -0.665481 0.569797 -0.269675 1.005388 -0.827424 0.330333
C 0.627640 1.236633 -0.048256 -0.865575 -1.053603 -1.016061
O -2.250504 -1.095916 0.285502 1.442157 0.437522 -0.590249
O 0.629468 2.469159 -0.028094 0.526798 -1.131080 0.292606
H 2.189468 -1.870679 0.072874 0.013042 -0.840025 0.066303
H -0.086595 -2.519496 0.450826 -0.433867 0.668396 -0.675282
H -1.389194 1.215200 -0.170278 -1.829402 1.575779 0.010460
H 2.698936 0.736218 0.190400 -0.617633 -1.286473 -0.578903
12
Properties=species:S:1:pos:R:3:forces:R:3 energy=-11279.459961689199
C 1.680668 0.238887 -0.052257 -0.488567 -0.047339 -0.338262
C 1.327880 -1.062437 -0.038086 0.974080 -1.175768 0.240601
N 0.059467 -1.564291 0.150260 0.900526 -0.117480 -0.999713
C -1.083538 -0.720796 0.018696 -1.140919 -1.895760 1.070567
N -0.743767 0.544087 -0.185055 2.619147 2.029186 0.010810
C 0.673162 1.227838 -0.070950 -2.906367 -1.361574 -0.066067
O -2.237917 -1.128457 0.195529 0.820892 -0.068264 -0.400697
O 0.675479 2.423690 -0.030448 0.407661 1.143200 0.009404
H 2.144621 -1.825583 -0.119303 -0.801403 0.442974 0.103174
H -0.000847 -2.526011 -0.177266 -0.661612 -0.121580 0.377251
H -1.462482 1.177077 0.076045 -1.005096 0.999860 -0.058949
H 2.669979 0.563753 -0.219020 1.281657 0.172544 0.051882
12
Properties=species:S:1:pos:R:3:forces:R:3 energy=-11279.493719708211
C 1.606788 0.266731 -0.086836 1.911411 -0.922615 -0.256027
C 1.362276 -1.066818 0.040458 1.262432 0.045346 0.729406
N 0.108717 -1.584729 0.205516 -1.131261 0.180761 -0.538809
C -1.044233 -0.759659 0.063302 -2.488363 0.053199 0.280192
N -0.727323 0.608258 0.026512 0.254420 1.053874 0.555681
C 0.585531 1.212572 -0.047895 -1.784351 3.213641 -1.356865
O -2.223945 -1.219749 0.022094 3.003151 0.921895 0.081640
O 0.669440 2.477864 -0.210586 -0.188828 -2.981308 0.797209
H 2.277321 -1.670504 0.243109 -0.990211 -0.301766 -0.577673
H -0.144801 -2.561604 0.020243 0.465768 0.118990 0.273809
H -1.416399 1.390993 0.163895 0.099675 -1.431641 -0.379361
H 2.642683 0.577211 -0.292442 -0.413843 0.049623 0.390798
12
Properties=species:S:1:pos:R:3:forces:R:3 energy=-11279.297269643384
C 1.736443 0.219286 -0.127742 -0.762071 2.470248 -0.284237
C 1.368575 -1.039276 0.101299 -0.339210 -1.139413 0.593654
N 0.108772 -1.557451 0.219998 -1.693114 3.220891 -1.380818
C -1.061242 -0.709775 0.082430 -0.716891 -2.215627 -0.575923
N -0.641041 0.573603 -0.051261 -2.296322 -0.542960 0.092263
C 0.602106 1.203453 -0.109251 0.437551 -1.750471 -0.272847
O -2.249239 -1.143506 0.012561 2.952705 1.144798 0.560950
O 0.524186 2.399372 -0.161229 1.320490 2.272730 -0.112826
H 2.054068 -1.809365 0.267454 1.630258 -1.137867 0.080125
H -0.113159 -2.321866 0.762481 -0.031125 -2.690116 1.229643
H -1.456390 1.174617 -0.094728 0.039191 0.743795 -0.150339
H 2.766820 0.582298 -0.287386 -0.541463 -0.376009 0.220357
12
Properties=species:S:1:pos:R:3:forces:R:3 energy=-11279.650902999880
C 1.633144 0.232127 0.045714 0.334682 1.963878 -1.082221
C 1.375532 -1.060591 0.076601 1.374534 -1.657046 0.646138
N 0.116155 -1.514106 0.197162 -0.393032 -2.166271 0.046283
C -1.048881 -0.720901 0.022481 -0.751884 -1.488552 0.506253
N -0.780940 0.566302 -0.287133 2.593857 0.948609 0.162774
C 0.568888 1.200621 -0.120671 -1.321399 1.354423 0.274971
O -2.178793 -1.182990 0.157156 0.288714 -0.066818 -0.093576
O 0.649139 2.439886 -0.100734 -0.038424 -1.623679 -0.253557
H 2.247503 -1.787667 0.116300 -1.303805 0.535847 -0.026215
H 0.065961 -2.533234 0.418223 -0.878748 1.128532 -0.338971
H -1.578247 1.176340 -0.357376 -0.379914 0.453191 -0.012073
H 2.652512 0.520350 -0.111852 0.475418 0.617887 0.170195
12
Properties=species:S:1:pos:R:3:forces:R:3 energy=-11279.466973530838
C 1.697457 0.236316 -0.089779 -3.331516 0.929715 0.378618
C 1.361210 -1.061238 0.085353 0.342926 -0.931503 -0.395176
N 0.086882 -1.640587 0.060525 -0.498954 2.988711 0.007313
C -1.056977 -0.734057 0.034730 1.830788 0.013470 -0.376604
N -0.780699 0.586733 -0.331919 2.184580 0.653360 1.002394
C 0.529541 1.211444 -0.046557 0.871527 0.412699 -1.825203
O -2.161523 -1.111140 0.268564 -2.179184 -1.031691 0.436882
O 0.673779 2.443538 -0.024669 -0.657840 -1.540045 0.333113
H 2.143309 -1.782977 0.147849 0.672145 -0.777999 0.029954
H -0.146675 -2.526150 0.498947 0.282362 -0.133773 0.055942
H -1.545523 1.262139 -0.227003 -0.107670 -0.373325 -0.017794
H 2.644442 0.683586 -0.328076 0.590837 -0.209618 0.370561
12
Properties=species:S:1:pos:R:3:forces:R:3 energy=-11279.360889213840
C 1.587534 0.285931 0.141055 0.598180 -0.676437 -1.472953
C 1.361817 -1.094243 -0.032039 1.614855 2.240844 0.660529
N 0.134261 -1.628046 0.047928 -1.136080 1.365817 -0.420919
C -1.030905 -0.766863 0.078883 1.746656 0.575223 -0.014695
N -0.834549 0.650389 -0.111794 1.876460 -1.848511 0.283258
C 0.515729 1.311009 -0.098041 -0.319040 -0.952729 0.528307
O -2.089404 -1.295889 0.256332 -2.018718 -0.256122 0.187301
O 0.677033 2.514185 -0.273346 -0.427927 -0.971416 0.170649
H 2.213702 -1.766612 -0.241234 -0.369624 0.162732 0.481217
H -0.014902 -2.595924 0.322727 -0.244522 0.015593 -0.278113
H -1.722869 1.142596 -0.082001 0.073086 0.457088 -0.092283
H 2.669649 0.615438 0.085410 -1.393325 -0.112083 -0.032296
12
Properties=species:S:1:pos:R:3:forces:R:3 energy=-11279.501501043442
C 1.605323 0.147584 0.059713 0.659822 2.700765 -0.521597
C 1.345049 -1.130643 -0.095815 -0.284127 -2.125773 0.196881
N 0.028057 -1.514472 -0.031098 -1.719531 0.124444 -0.352678
C -1.125492 -0.649288 0.072516 1.902934 -0.655752 0.405108
N -0.785891 0.717778 -0.056263 -0.789615 -1.237454 -0.377605
C 0.546998 1.178379 -0.114659 1.458725 -0.465234 1.295082
O -2.214954 -1.142322 0.315024 -0.105841 0.688069 -0.492713
O 0.923521 2.339378 -0.147391 -1.086445 0.866870 -0.530302
H 2.094576 -1.940052 -0.203283 -0.407549 0.393641 0.192837
H -0.307835 -2.465441 -0.139004 0.398906 -0.290396 0.073802
H -1.620187 1.259459 -0.297104 0.425027 0.604099 0.267975
H 2.601343 0.625628 0.122968 -0.452303 -0.603280 -0.156791
12
Properties=species:S:1:pos:R:3:forces:R:3 energy=-11279.351355393197
C 1.665414 0.157695 -0.261231 -1.531248 1.942867 1.273413
C 1.348259 -1.132429 -0.179983 -1.679281 -0.483521 0.245503
N 0.014831 -1.597622 -0.092384 -0.229004 1.838090 -0.364315
C -1.122498 -0.715895 0.060442 1.115792 0.958222 0.822198
N -0.743178 0.677034 0.028280 0.722767 -0.120884 -0.314475
C 0.572325 1.204698 -0.051770 2.084223 1.209226 -0.632502
O -2.235817 -1.127643 0.342306 0.441522 0.198493 -0.484488
O 0.820653 2.448650 0.017619 -1.112697 -2.902523 0.028393
H 2.188974 -1.786406 -0.161075 0.127397 -1.333406 0.107500
H -0.253533 -2.472079 0.317479 0.351335 -0.974839 -0.029150
H -1.388407 1.470916 0.150752 -0.471274 -0.824812 0.033308
H 2.683386 0.402234 0.022719 0.180468 0.493087 -0.685384
12
Properties=species:S:1:pos:R:3:forces:R:3 energy=-11279.285009545434
C 1.614327 0.216269 -0.345367 -0.568396 -1.084524 -0.134434
C 1.269019 -1.103072 -0.312314 1.739996 -1.264936 1.238396
N 0.030655 -1.556593 0.087353 -1.448295 0.904203 0.111743
C -1.143809 -0.650128 0.155216 2.381082 -1.821423 -0.453658
N -0.722043 0.665716 0.046479 -2.694098 1.113289 0.407085
C 0.575877 1.129095 -0.046575 2.281908 4.496025 -0.042081
O -2.247171 -1.142470 0.238813 -0.483351 0.792794 0.331077
O 0.925604 2.371363 0.064746 -2.076092 -2.640250 -0.022227
H 2.060399 -1.895943 -0.365358 -0.713134 0.516095 -0.162775
H -0.156178 -2.458354 0.573577 0.443004 0.633416 -0.928026
H -1.498621 1.391549 0.131674 1.292700 -0.980830 -0.113440
H 2.590101 0.696118 -0.477675 -0.155324 -0.663859 -0.231661
12
Properties=species:S:1:pos:R:3:forces:R:3 energy=-11279.360877013942
C 1.667706 0.252918 -0.091794 0.514418 0.489970 1.920578
C 1.346279 -1.016149 0.251019 0.033365 -1.268593 -0.569468
N 0.096220 -1.537613 -0.019614 -0.717901 0.194791 1.039577
C -1.094904 -0.678377 0.055342 3.032317 -2.172295 -0.630145
N -0.736350 0.616823 -0.047527 -0.330879 0.452136 -0.018499
C 0.553130 1.168765 -0.079103 0.768511 0.777194 -1.793769
O -2.152155 -1.224715 0.137891 -2.328268 -0.013795 0.081114
O 0.659465 2.379971 -0.223197 -0.112695 0.605827 0.339810
H 2.036166 -1.703838 0.735525 0.336725 -0.226809 -0.436651
H -0.135965 -2.538328 0.146903 0.340303 0.944335 0.135966
H -1.434112 1.262935 -0.362801 -0.772669 0.619585 0.229920
H 2.665218 0.688544 0.151389 -0.763227 -0.402346 -0.298433
12
Properties=species:S:1:pos:R:3:forces:R:3 energy=-11279.171413990958
C 1.571760 0.270810 -0.286367 3.809546 1.444767 -0.365545
C 1.397378 -1.062363 -0.120462 1.096011 -0.215422 1.993631
N 0.182864 -1.516066 0.281647 0.052005 -1.218581 -0.212446
C -0.995402 -0.750511 0.149576 0.568615 0.581388 -0.395624
N -0.771900 0.599252 0.164190 1.220430 -0.581575 -0.115387
C 0.560294 1.203515 -0.131526 -5.160881 2.899950 1.171937
O -2.073160 -1.253662 -0.021292 -1.681773 -1.082481 0.363658
O 0.480676 2.452395 -0.115526 1.660180 -1.364118 -0.428444
H 2.254458 -1.757043 0.104962 -0.763809 0.605087 -0.742304
H 0.075192 -2.507481 0.532420 -0.244351 0.440009 -0.442257
H -1.635774 1.155883 0.243446 0.694271 0.140809 -0.329059
H 2.574851 0.855531 -0.273743 -1.250244 -1.649834 -0.498160
12
Properties=species:S:1:pos:R:3:forces:R:3 energy=-11279.438518467687
C 1.718537 0.179229 -0.123071 -2.602826 -0.991433 -0.647974
C 1.310753 -1.162701 -0.183732 1.245167 1.094508 1.036201
N -0.011236 -1.540543 0.040943 0.896196 -1.824196 0.170682
C -1.069289 -0.693579 0.100520 0.757018 2.566283 -0.051664
N -0.678660 0.688708 0.116550 -1.718011 -2.086737 0.538389