20
Properties=species:S:1:pos:R:3:forces:R:3 energy=-14005.789243399508
C 0.752424 -0.360708 -0.064560 1.491938 -1.592808 0.174045
C 2.293870 -0.019105 0.100301 -2.163205 -0.720920 -0.554961
O 2.640937 1.129800 0.308877 0.616921 0.288424 0.213229
N 3.126412 -1.083380 -0.201472 0.968645 -0.089738 -0.378112
C 4.570002 -0.966264 -0.321666 -1.585515 -0.390371 0.471975
C 5.242264 -2.160769 -0.281826 -3.878858 -1.780906 1.282420
C 6.542575 -2.273251 -0.056905 3.611150 -0.948497 -1.767532
C 7.341487 -1.134052 -0.122983 1.121169 1.043425 -0.049908
O 8.755826 -1.328591 -0.119872 -1.518933 0.112729 0.014955
C 6.739432 0.141146 -0.273734 0.051273 -1.164865 -0.280658
C 5.322731 0.178159 -0.403879 1.775500 0.224600 0.253084
H 0.169207 -0.396225 0.867384 0.321170 0.196651 0.078438
H 0.688175 -1.386170 -0.537410 -0.334449 0.967542 0.186379
H 0.363138 0.415959 -0.703547 -0.349533 0.251397 -0.422240
H 2.764068 -2.075020 -0.290171 0.347030 1.694760 0.145301
H 4.544353 -3.024818 -0.119290 0.860372 0.082390 -0.586035
H 7.049054 -3.184417 -0.426596 -0.064743 -0.097072 1.140448
H 9.110774 -0.668090 -0.735299 0.217906 0.202111 0.041414
H 7.407229 1.013645 -0.403544 -0.635801 -0.142760 0.149756
H 4.848417 1.089269 -0.547183 -0.852037 1.863909 -0.111998
20
Properties=species:S:1:pos:R:3:forces:R:3 energy=-14005.612472265291
C 0.751530 -0.576561 -0.054256 -0.038758 1.329501 -0.583801
C 2.281185 0.006298 -0.100650 -1.215379 -1.306267 -1.654450
O 2.669154 1.042735 -0.668795 -1.030006 -1.025654 1.247684
N 3.145519 -1.053936 0.159180 0.405121 0.018235 0.264339
C 4.564154 -0.915385 0.015269 0.007893 0.063870 -0.366826
C 5.278540 -1.692022 0.920169 0.498772 0.678972 -0.484992
C 6.671540 -1.758058 0.859006 -1.738950 -1.909742 1.612226
C 7.320714 -1.101124 -0.150612 2.845605 0.085501 0.373367
O 8.691831 -1.426544 -0.356587 -1.156028 0.444547 0.112195
C 6.700892 -0.108932 -0.904342 -1.892034 -2.363606 0.713375
C 5.298032 -0.151656 -0.963959 -0.537097 0.029883 0.762335
H 0.032769 0.225686 -0.336160 0.528466 0.030683 0.247892
H 0.349890 -0.974631 0.909145 0.706178 -0.047062 -0.449779
H 0.613733 -1.298855 -0.907615 0.455252 0.186347 0.869014
H 2.851712 -1.915751 0.714783 0.187021 1.676494 -0.955297
H 4.739781 -2.314756 1.628616 -0.020869 0.022727 0.284440
H 6.961668 -2.525970 1.612680 1.221799 0.639796 -0.922142
H 8.862408 -1.169354 -1.280215 0.270245 0.043558 0.047390
H 7.259477 0.358177 -1.644202 0.937029 1.207698 -1.459962
H 4.838941 0.383382 -1.790792 -0.434261 0.194518 0.342990
20
Properties=species:S:1:pos:R:3:forces:R:3 energy=-14005.888044648029
C 0.887102 0.256165 -0.516698 0.347955 -3.207122 -1.524312
C 2.172048 -0.224635 0.173696 0.001343 -0.468719 1.271395
O 2.207465 -0.517855 1.388352 0.199967 0.739431 -1.395531
N 3.219003 -0.508539 -0.709379 0.114138 0.393547 -1.107536
C 4.583221 -0.782174 -0.515840 0.912388 -1.069023 -0.043683
C 5.507140 -0.638897 -1.650028 0.446022 0.383775 2.573167
C 6.904721 -0.753561 -1.382546 -1.130021 0.485693 -0.384459
C 7.446746 -1.078768 -0.133423 -0.541739 -0.005261 0.303838
O 8.848790 -1.023204 0.055196 -1.653062 -0.069240 -1.550373
C 6.504011 -1.340634 0.885137 -0.787017 -0.092375 -0.203188
C 5.063291 -1.270957 0.735325 2.138080 1.429632 -0.564973
H 0.222066 0.910978 0.020235 0.027007 0.403267 0.474581
H 0.368041 -0.816942 -0.578658 0.388419 2.116483 -0.132757
H 1.089758 0.573366 -1.581153 -0.396020 -0.030466 0.948135
H 3.086723 -0.409009 -1.720679 -0.719248 0.387352 0.392645
H 5.266354 -0.080690 -2.567544 -0.384316 -0.484398 0.194793
H 7.521859 -0.330210 -2.150265 0.730070 -0.161079 -0.520467
H 9.031948 -1.041303 0.987573 0.129570 -0.095957 1.235218
H 6.899540 -1.559497 1.862864 0.052624 -0.199925 0.631983
H 4.436640 -1.217142 1.643547 0.123840 -0.455614 -0.598476
20
Properties=species:S:1:pos:R:3:forces:R:3 energy=-14005.366269053317
C 0.802611 -0.130997 -0.466897 1.271813 -0.921522 -2.195006
C 2.287054 -0.042741 0.136000 -1.380289 2.739647 -1.009938
O 2.672286 1.083298 0.570029 -0.303634 -2.952657 -0.386859
N 3.040518 -1.205052 -0.009534 2.413772 0.609627 -0.030981
C 4.574801 -1.111352 0.039517 -0.671622 -0.664389 -0.777918
C 5.177935 -2.035604 -0.880773 1.296879 1.662781 1.314291
C 6.587469 -2.013085 -1.126971 -1.994553 0.836121 0.899285
C 7.325585 -1.086354 -0.348520 0.723454 -1.082743 -1.554258
O 8.693320 -1.049653 -0.498632 1.055947 0.496252 -1.143659
C 6.791253 -0.200236 0.528336 -0.865977 0.563557 2.625714
C 5.407886 -0.225607 0.781204 -0.169876 -1.219260 -1.710758
H 0.036881 0.225028 0.181365 -0.592122 -0.151871 1.197450
H 0.599829 -1.136372 -0.935798 -0.138750 0.375512 1.023580
H 0.574212 0.498449 -1.391524 1.212119 -0.044925 0.904845
H 2.764954 -1.889613 -0.766454 0.003900 1.060594 1.195557
H 4.470820 -2.715420 -1.280122 -0.273147 -0.977824 -1.085727
H 7.045318 -2.563382 -1.948343 0.088620 -0.265470 0.294756
H 8.843318 -0.511617 -1.317664 0.279170 -0.509649 0.655474
H 7.448742 0.392156 1.261637 -0.798986 -0.670966 -1.449666
H 5.063377 0.478658 1.462365 -1.156716 1.117186 1.233816
20
Properties=species:S:1:pos:R:3:forces:R:3 energy=-14005.821193202499
C 0.980610 -0.012007 0.660519 -0.789929 0.178638 0.828849
C 2.251154 -0.460174 -0.076494 -1.376675 -1.078878 -0.722312
O 2.199849 -1.429516 -0.866054 0.126831 1.111001 0.755057
N 3.383037 0.201621 0.267180 1.348945 0.795803 -0.562863
C 4.715308 -0.176839 -0.123844 -0.923129 -1.832634 0.689474
C 4.925756 -1.582529 -0.194573 -2.550878 -0.225439 -0.289903
C 6.181535 -2.065176 -0.192377 2.559550 -2.074557 0.517786
C 7.261429 -1.184740 -0.175807 1.489090 -0.150409 -1.107182
O 8.620894 -1.656945 -0.282406 -0.901646 0.104969 1.090297
C 7.054347 0.179285 -0.368990 0.840321 -1.702572 0.913598
C 5.807880 0.677862 -0.205691 -2.485741 0.922376 -0.284014
H 0.333064 -0.899750 0.608634 -0.152660 0.146391 -0.307186
H 0.380758 0.863005 0.173740 1.238242 -1.176151 0.967497
H 1.140125 0.057545 1.805190 -0.071641 0.650421 -1.583167
H 3.280145 1.059562 0.800154 -0.014717 0.036815 0.058939
H 4.045472 -2.294864 -0.303423 1.071503 1.059970 0.400330
H 6.453722 -3.164329 -0.108189 -0.630036 1.129480 -0.317846
H 8.957875 -1.797248 0.642010 -0.319825 0.087296 -0.846915
H 7.934411 0.736685 -0.461646 1.194633 1.314121 -0.259291
H 5.548558 1.722771 -0.247811 0.347761 0.703358 0.058853
20
Properties=species:S:1:pos:R:3:forces:R:3 energy=-14005.246571148844
C 0.962856 -0.098123 -0.053540 -3.229884 -1.754850 3.121455
C 2.334220 0.102994 -0.366130 2.258002 -1.043255 -2.081629
O 2.682968 1.149435 -0.936626 0.600286 -0.429375 0.820492
N 3.138647 -1.053820 -0.215383 1.333296 2.125742 -0.779980
C 4.572508 -1.100236 -0.192096 -1.160787 1.897387 0.934416
C 5.081156 -2.046722 0.667184 1.368887 -3.502970 1.187497
C 6.486274 -2.226083 0.787158 0.280752 0.730965 -1.212480
C 7.271705 -1.229212 0.111332 1.928439 -3.566531 1.452091
O 8.680085 -1.363229 -0.143610 -1.572640 1.273147 1.172642
C 6.746388 -0.094897 -0.366095 -1.254705 2.844857 -1.746002
C 5.385170 0.005560 -0.598941 -1.331386 -1.333745 0.116910
H 0.608374 0.873647 0.289929 -0.402407 0.140809 0.152518
H 0.732532 -0.897858 0.827162 0.544467 1.631717 -1.879309
H 0.342482 -0.373217 -0.911004 0.075067 -0.089173 -0.248319
H 2.773871 -1.955305 -0.015385 -1.094032 -0.606137 0.498066
H 4.477739 -2.908539 1.194344 0.607960 1.855188 -1.095071
H 6.935646 -3.148390 1.222879 -0.261681 0.849277 -0.187145
H 8.786158 -0.371440 -0.176682 1.322465 -1.083407 -0.327421
H 7.426617 0.709470 -0.746567 -0.522999 -0.474643 0.186128
H 4.803142 0.777929 -1.090722 0.510901 0.535000 -0.084856
20
Properties=species:S:1:pos:R:3:forces:R:3 energy=-14006.113112467428
C 0.844226 -0.353333 -0.532439 -0.600735 -0.408233 0.608682
C 2.189171 -0.310889 0.221873 1.066402 0.331897 -1.125776
O 2.294180 -0.299272 1.440945 0.019889 -0.133841 -0.611685
N 3.334960 -0.181413 -0.707224 -2.690620 -0.169431 0.053001
C 4.673325 -0.474612 -0.539177 1.197280 0.034124 1.077597
C 5.431765 -0.870208 -1.653709 1.270253 -0.428548 2.499174
C 6.757345 -1.256996 -1.411154 -0.527569 -0.639479 -1.130752
C 7.325652 -1.220291 -0.130139 -0.164414 0.365496 -0.819370
O 8.662453 -1.428479 0.025463 1.054257 -0.990066 0.142865
C 6.623730 -0.828242 0.981148 -2.099997 1.147462 -0.306159
C 5.276336 -0.382490 0.741833 0.362291 -0.018268 0.265803
H 0.237081 0.524193 -0.271235 0.200653 0.206884 0.209578
H 0.185072 -1.213529 -0.188876 0.985248 0.593201 -0.362890
H 0.911992 -0.331651 -1.625727 0.171206 -0.275410 -0.026997
H 3.065971 -0.310022 -1.690717 -0.219999 0.162865 0.452341
H 4.992098 -1.014152 -2.587659 -0.732962 -0.150723 -1.747665
H 7.272899 -1.766424 -2.256073 0.140093 0.642780 0.531241
H 8.805540 -2.356177 -0.232965 0.530519 0.006285 -0.089001
H 7.179271 -0.812072 1.925660 -0.501511 0.211131 0.009625
H 4.608185 0.101584 1.466252 0.539715 -0.488127 0.370388
20
Properties=species:S:1:pos:R:3:forces:R:3 energy=-14005.887938040332
C 0.835492 -0.204302 -0.121794 -0.202056 2.281180 1.542339
C 2.337939 0.007302 -0.509973 -1.646407 -0.492808 0.666207
O 2.694298 0.798461 -1.365071 0.404615 0.212031 -0.205389
N 3.154686 -0.826267 0.242990 0.469321 1.539387 -0.460736
C 4.586424 -0.786302 0.250326 -1.178323 1.158706 -1.799947
C 5.141175 -1.976664 0.611016 0.408167 -0.938248 0.980185
C 6.502341 -2.264728 0.562514 -0.354415 -0.858292 -0.294304
C 7.302375 -1.251744 -0.004026 1.132101 -0.889987 -0.464030
O 8.704415 -1.547359 -0.129932 -1.145633 0.962548 -0.382667
C 6.735681 -0.035972 -0.468500 0.518392 0.441527 1.581744
C 5.344824 0.251043 -0.342962 0.686407 -0.173201 0.413302
H 0.477231 -1.157281 -0.437447 -0.359540 -1.027648 -0.398628
H 0.110955 0.620398 -0.523820 1.515171 -1.295321 0.524348
H 0.781686 -0.176543 1.042998 -0.130467 -0.031247 -1.696458
H 2.712447 -1.385025 0.957492 -0.141132 -0.144378 0.173184
H 4.365562 -2.649057 0.974628 0.505465 -0.794006 0.113491
H 6.779039 -3.334397 0.816414 0.340483 1.471341 -0.240885
H 9.123683 -0.931291 -0.794222 -0.685012 -0.509809 0.749968
H 7.517724 0.755931 -0.464861 -0.732982 -0.026731 -0.921050
H 4.873076 1.226775 -0.617003 0.595845 -0.885043 0.119324
20
Properties=species:S:1:pos:R:3:forces:R:3 energy=-14005.696013846728
C 0.759813 0.063008 -0.468915 1.716622 1.774737 0.590766
C 2.169989 -0.505117 0.012283 0.743907 0.646089 -2.088937
O 2.317753 -1.370317 0.871497 -0.660031 0.766257 -0.376217
N 3.329163 0.034781 -0.697533 -0.966197 -1.286794 1.111232
C 4.665081 -0.433081 -0.451574 0.041925 2.690776 -0.842166
C 5.664551 0.570226 -0.785298 1.735504 -7.292172 2.394185
C 6.994870 0.181350 -0.550308 -0.413773 0.333794 -0.297193
C 7.354575 -1.088756 -0.057871 0.827026 0.130397 -0.106297
O 8.702695 -1.396387 0.245460 -0.235857 0.113880 -0.900111
C 6.402331 -2.025949 0.220190 -3.222614 1.002482 0.392976
C 5.003701 -1.643823 0.103768 1.599775 -0.768150 0.015664
H 0.153078 -0.693038 -0.956984 -0.308868 -0.444010 0.473518
H 0.803064 0.934357 -1.215008 0.395155 -1.014086 0.847588
H 0.385755 0.526204 0.488354 -0.445296 -0.732189 -0.850783
H 3.291844 0.678849 -1.500500 -0.626361 -0.282596 0.620246
H 5.406966 1.481058 -1.024331 -1.319989 4.943878 -1.533057
H 7.788715 0.878584 -0.745961 0.494894 0.410485 -0.041448
H 8.980077 -2.036457 -0.449222 0.056444 0.267947 0.485285
H 6.590254 -2.936799 0.741740 0.502029 -0.771310 0.201422
H 4.196680 -2.234246 0.513263 0.085705 -0.489414 -0.096673
20
Properties=species:S:1:pos:R:3:forces:R:3 energy=-14005.395084230720
C 0.960046 0.402480 0.460175 -0.993701 -1.959273 -2.792924
C 2.170590 -0.506746 -0.090910 -0.678640 1.327470 1.463744
O 2.083724 -1.711950 -0.125059 -0.349704 -1.198194 -0.451465
N 3.391579 0.160563 -0.219191 -1.923424 1.324334 0.164054
C 4.681008 -0.254328 -0.216194 0.488898 -5.313189 0.653982
C 4.943904 -1.718956 -0.061165 1.745047 3.270760 -0.225828
C 6.278241 -2.139575 -0.072129 0.691735 1.413795 0.208139
C 7.382029 -1.196416 -0.256840 -2.619658 -1.062036 0.519965
O 8.714206 -1.364684 -0.138892 0.982045 -0.072755 -0.256342
C 7.024744 0.111390 -0.508496 -0.044631 -0.339113 0.228948
C 5.736976 0.592943 -0.327931 0.502124 2.081145 -2.247717
H -0.126971 -0.031273 0.317819 2.312850 0.083655 0.746652
H 0.840911 1.327319 -0.038938 0.277714 1.379903 -1.255944
H 1.240111 0.730442 1.405764 0.129766 0.017419 2.459416
H 3.394296 1.146264 -0.063953 -0.759979 1.100529 -0.028457
H 4.133488 -2.343420 0.212206 -0.667262 -0.794596 -0.118801
H 6.431812 -3.165199 0.169259 0.504470 -0.991514 0.097564
H 9.026959 -2.261743 0.004287 -0.263608 -0.734001 0.008888
H 7.818925 0.667196 -0.941865 0.669538 1.231087 0.077780
H 5.563791 1.639922 -0.715707 -0.003580 -0.765425 0.748345
20
Properties=species:S:1:pos:R:3:forces:R:3 energy=-14005.078107669207
C 0.780603 0.498238 -0.095818 2.773567 -1.093907 0.144846
C 2.170149 -0.306784 -0.497140 -2.114018 0.334698 -0.429696
O 2.152356 -1.250738 -1.274235 0.188460 0.068776 -0.230413
N 3.259250 0.139158 0.186614 2.277787 -1.677096 -1.773759
C 4.659785 -0.301469 0.046199 0.042895 -0.956915 -0.172469
C 5.538003 -0.202878 1.151217 2.100106 0.154791 1.282355
C 6.942872 -0.718686 1.318055 -2.310558 -0.108527 -3.170083
C 7.429027 -1.309808 0.020645 -0.322736 1.131172 3.094038
O 8.681858 -1.952533 -0.046935 -2.411752 0.552656 -2.756583
C 6.613755 -1.226866 -1.110484 -1.963156 -0.705189 0.804223
C 5.180196 -0.951459 -1.105099 0.593230 0.274595 -1.032154
H -0.031242 -0.014123 -0.624362 -0.080858 -0.169951 0.711539
H 0.798974 1.537067 -0.404926 0.221537 0.439371 -0.244556
H 0.904543 0.477443 1.014129 -1.252206 -0.127516 -0.446211
H 3.029864 0.771042 0.879363 -0.041705 1.839674 1.976256
H 5.157336 0.446834 1.942035 0.038214 -0.319430 0.514602
H 7.518297 -0.703776 2.303657 -0.866292 0.132860 -1.386917
H 9.015938 -1.851736 0.806999 1.435482 0.147500 2.676982
H 7.058251 -1.716107 -1.934873 0.223731 -0.456051 -1.360294
H 4.503550 -1.187598 -2.036295 1.468270 0.538491 1.798296
20
Properties=species:S:1:pos:R:3:forces:R:3 energy=-14005.241660375445
C 0.748958 -0.524714 -0.461383 2.772830 0.931976 -3.298568
C 2.148406 -0.129874 0.110956 2.085172 -1.873197 3.660824
O 2.333393 0.041151 1.356004 -0.982232 0.190958 -2.415227
N 3.289645 -0.199273 -0.735542 -1.075056 -1.188126 -0.050908
C 4.678363 -0.636790 -0.422668 -1.410239 1.195857 -1.297073
C 5.525336 -0.836762 -1.527463 -2.705565 0.199537 -0.521274
C 6.854201 -1.028210 -1.475304 1.140479 -0.854226 1.610940
C 7.347374 -1.191191 -0.190725 1.497045 0.871708 0.621899
O 8.697177 -1.484752 0.063963 -1.162037 0.205207 0.010068
C 6.527824 -0.944803 0.913111 3.284416 -1.397395 -0.332850
C 5.234276 -0.701482 0.843520 -2.136470 0.383140 -2.239779
H 0.715928 0.174063 -1.365104 -0.792420 -0.629724 0.799152
H 0.079818 -0.262189 0.272183 -1.931140 0.747248 1.669460
H 0.522260 -1.550844 -0.868510 0.833911 0.588621 0.606077
H 2.887449 -0.648369 -1.558787 0.876751 0.085225 -0.699574
H 5.056299 -1.048977 -2.457969 -0.597396 0.496587 -1.184083
H 7.459719 -1.245685 -2.319718 0.434707 -0.162225 -1.016710
H 9.099800 -1.433329 -0.810653 0.597571 -0.136106 -0.294543
H 6.991572 -1.168981 1.820074 0.740621 -0.093709 1.856079
H 4.578322 -0.719867 1.625543 -1.470949 0.438643 2.516090
20
Properties=species:S:1:pos:R:3:forces:R:3 energy=-14005.737523301190
C 0.921318 -0.144378 -0.337554 -0.028590 -2.046788 -0.079688
C 2.346740 -0.051538 0.137184 -1.306766 1.496087 -1.721841
O 2.641290 0.913783 0.807072 0.950127 1.026479 1.669271
N 3.185853 -0.860315 -0.528342 -0.376744 -1.766008 -0.997784
C 4.574137 -0.922705 -0.503818 0.380313 -0.814145 -0.383009
C 5.253422 -2.127089 -0.945454 -2.040476 1.478775 -0.666051
C 6.592835 -2.182364 -0.762877 2.296242 -3.977909 -0.339892
C 7.331439 -1.186997 -0.155889 0.502652 0.648629 1.798776
O 8.566210 -1.466761 0.376157 -0.015818 -2.134709 -1.680177
C 6.680076 -0.023837 0.187160 -0.949462 2.892338 1.004180
C 5.297800 0.168353 0.005244 1.114984 -2.457581 -0.842820
H 0.598116 0.589875 -1.034674 0.220056 1.057424 -0.814648
H 0.344799 -0.018428 0.521094 -1.344655 0.448978 1.735515
H 0.592969 -1.115153 -0.728919 0.213340 -0.257556 -0.227131
H 2.637998 -1.563573 -1.039830 0.794305 0.001862 0.011503
H 4.783231 -2.921776 -1.585519 -0.022001 0.645353 0.998477
H 7.060055 -3.271062 -0.907473 -0.511640 2.469649 0.034000
H 8.929745 -0.789081 0.917364 0.215120 1.543382 0.793317
H 7.085340 0.866980 0.774569 0.424058 -1.340442 -0.815827
H 4.790791 1.047657 0.277586 -0.515044 1.086182 0.523828
20
Properties=species:S:1:pos:R:3:forces:R:3 energy=-14005.510502113708
C 0.932504 -0.029872 -0.434073 -3.252750 0.057001 -1.564731
C 2.272805 -0.130411 0.161915 -0.180700 -1.169297 -3.481729
O 2.528036 0.427922 1.173339 1.348343 1.212287 2.876445
N 3.146973 -0.747135 -0.762128 1.907168 0.604139 1.799678
C 4.562058 -0.951059 -0.503848 -2.092830 0.484487 -1.945647
C 5.427251 -1.038816 -1.568006 2.346723 -0.962289 -2.514532
C 6.886583 -1.253217 -1.422856 -3.992897 1.551175 0.531103
C 7.346994 -1.062611 -0.137917 1.699810 -0.384330 1.575287
O 8.720473 -1.148878 0.145870 -0.367702 0.359292 -1.767270
C 6.458501 -0.897486 0.934905 0.171950 -1.397811 0.580337
C 5.074224 -0.998229 0.729672 2.869437 0.276506 3.133892
H 0.699301 1.042193 -0.668306 0.252311 -0.461053 0.561405
H 0.138322 -0.396459 0.261846 0.455592 0.358523 -0.166969
H 0.676776 -0.502318 -1.442440 0.831091 0.027491 1.058079
H 2.758548 -1.515340 -1.230607 -1.066188 -1.128595 -1.226721
H 5.038294 -1.088726 -2.640461 0.324308 0.272444 1.385432
H 7.442027 -1.229378 -2.317923 1.045823 -0.373199 -0.849979
H 8.914551 -1.446791 1.035848 -0.354377 -0.078014 0.750200
H 6.849063 -1.054834 1.989963 -0.378787 0.500740 -1.166434
H 4.634594 -1.186418 1.678439 -1.566325 0.250503 0.432156
20
Properties=species:S:1:pos:R:3:forces:R:3 energy=-14005.708681355291
C 0.910180 0.410758 -0.534189 0.928496 0.098223 1.696513
C 2.228869 -0.202002 0.053006 -0.473004 1.110394 -2.898093
O 2.229193 -0.749494 1.117164 0.359431 -0.721159 1.641070
N 3.341248 0.052435 -0.798603 0.798277 -1.754924 0.387159
C 4.693859 -0.577087 -0.558480 -0.824514 1.101418 -0.964103
C 5.203240 -0.358746 0.706773 -0.323658 -0.274724 2.888326
C 6.539573 -0.686641 1.052137 -0.298241 -1.528936 -2.369177
C 7.331362 -1.339760 0.021027 -2.118094 1.549041 -1.529613
O 8.600488 -1.706555 0.223121 0.500486 -1.069142 -1.070361
C 6.858512 -1.439509 -1.347666 -1.952249 0.124571 2.372631
C 5.519879 -1.136924 -1.596946 -1.894364 1.631451 1.071002
H 0.909463 0.784160 -1.534762 0.281297 0.101702 -1.056729
H 0.772115 1.298239 0.115078 -0.414599 -0.257132 -0.094610
H 0.111122 -0.310139 -0.385208 -0.282331 -0.060762 0.128939
H 3.004801 0.102706 -1.764840 0.506886 0.069416 0.096185
H 4.449805 -0.124647 1.569883 1.478522 0.057281 -1.624626
H 6.898357 -0.676510 2.077685 0.023273 0.183579 0.145005
H 8.775517 -1.244772 1.013437 1.411253 0.739486 2.236690
H 7.342319 -1.942511 -2.129273 1.448460 -0.592390 -0.864326
H 4.969049 -1.128867 -2.550780 0.844674 -0.507393 -0.191883
20
Properties=species:S:1:pos:R:3:forces:R:3 energy=-14005.703407300973
C 0.819339 -0.532392 -0.280265 -0.282584 0.969966 -0.511665
C 2.209853 -0.030942 0.022418 0.522833 -1.596714 0.452903
O 2.417698 0.653436 1.031934 0.406110 0.006213 -1.019692
N 3.190151 -0.709109 -0.730302 2.103557 0.631691 0.491508
C 4.648232 -0.731576 -0.529822 -2.439554 0.983280 2.407562
C 5.411371 -1.253468 -1.524640 1.578263 -1.020376 -0.838058
C 6.717877 -1.540504 -1.168004 0.372083 -1.230447 -3.197683
C 7.336049 -1.238443 0.008228 0.359434 1.257312 -0.614349
O 8.662134 -1.499649 -0.109282 1.805897 0.140437 3.230276
C 6.675295 -0.452403 0.942155 -1.855034 -0.628291 -0.060102
C 5.252958 -0.383619 0.711071 0.550223 0.627806 0.865327
H 0.627550 -0.710488 -1.394210 -0.164706 0.304939 1.461255
H 0.184748 0.198254 0.278115 -0.187297 -0.311501 -1.018633
H 0.722186 -1.437946 0.312272 -0.099685 -0.659478 -0.131783
H 3.037810 -1.408312 -1.459400 -1.155482 0.445855 0.157874
H 5.114694 -1.544015 -2.542045 -0.385138 0.285269 0.325786
H 7.428702 -1.963569 -1.945955 -0.940615 0.313256 0.770970
H 9.016693 -1.375848 0.835369 -0.044891 -0.259886 -1.683120
H 7.132779 0.008079 1.833164 -0.200001 -0.365287 -0.218593
H 4.652339 -0.048020 1.580635 0.056586 0.105956 -0.869781
20
Properties=species:S:1:pos:R:3:forces:R:3 energy=-14005.623654076673
C 0.986130 0.537889 -0.021333 -0.137999 -1.723905 0.163663
C 2.147169 -0.381895 -0.438516 -0.924100 1.418070 1.280228
O 2.063668 -1.427845 -1.008335 -0.165559 -2.112708 -1.620367
N 3.308916 0.109379 0.087788 1.483572 1.189853 0.428849
C 4.632016 -0.394766 -0.093659 2.520155 1.145609 2.264644
C 5.625994 0.075767 0.903767 -5.831109 1.335784 0.496381
C 6.888261 -0.272669 1.010056 2.667524 -2.407650 -0.945830
C 7.355627 -1.225565 0.007892 1.693968 0.051905 1.332608
O 8.592090 -1.890765 0.155108 -0.488577 1.824264 1.085732
C 6.607377 -1.566836 -1.071127 -2.945503 1.005813 0.477664
C 5.212591 -1.198509 -1.049414 -0.892052 -0.177619 -2.254451
H 1.124545 1.443579 -0.544329 0.491517 1.912776 0.151049
H 1.042386 0.476668 1.082653 -0.401500 0.929193 -0.287317
H -0.009699 0.256910 -0.375971 0.080267 -0.810526 0.129595
H 3.234874 1.003420 0.653196 0.271950 -1.395114 -0.912178
H 5.139588 0.658056 1.739031 0.654683 -0.191416 -0.635938
H 7.435094 -0.013579 1.927548 0.228191 -0.069169 -0.430150
H 8.933479 -1.402429 0.952553 0.406360 -0.860031 -0.704683
H 6.984460 -2.085096 -1.914056 0.470008 -0.810023 -0.606900
H 4.535807 -1.443521 -1.910771 0.818206 -0.255105 0.587400
20
Properties=species:S:1:pos:R:3:forces:R:3 energy=-14005.702732660908
C 0.882036 -0.542258 -0.268198 -1.434604 -4.429466 -2.087591
C 2.217924 -0.141685 0.121131 1.380544 2.617813 3.506727
O 2.458893 0.610155 1.125468 -0.385388 -1.618781 -1.916058
N 3.210655 -0.644917 -0.688109 -0.943733 0.230588 -0.898881
C 4.581770 -0.602143 -0.558777 1.646920 -1.118138 0.502019
C 5.355834 -1.438159 -1.407022 -0.231411 -0.089367 -0.708286
C 6.701233 -1.739506 -1.219996 -0.125257 -0.009610 -0.650022
C 7.337574 -1.170189 -0.121957 1.966827 -0.651468 1.146717
O 8.688335 -1.644065 0.106899 -0.564955 1.223459 1.178403
C 6.634128 -0.298435 0.738835 0.609094 -0.976405 -1.476878
C 5.274988 -0.056977 0.523233 0.686118 0.623663 0.837074
H 0.075802 0.096482 -0.465131 -0.708264 2.080586 -0.126541
H 0.283231 -1.399106 0.213512 1.440369 0.943883 0.651748
H 1.043421 -1.119325 -1.227112 -0.478938 0.625741 0.163404
H 2.889314 -0.949615 -1.607372 0.053936 -0.230615 0.203786
H 4.919212 -1.929434 -2.282199 -0.396597 0.127227 0.095894
H 7.206677 -2.400106 -1.973433 -0.252254 0.562440 0.931466
H 9.108680 -1.325453 0.990645 -1.398779 -0.378804 -1.863740
H 7.205010 0.198661 1.503680 -0.066769 0.223421 0.626425
H 4.850108 0.560048 1.298165 -0.796860 0.243833 -0.115667
20
Properties=species:S:1:pos:R:3:forces:R:3 energy=-14005.052153879149
C 0.774410 -0.489318 -0.375355 -0.710913 0.076073 -3.225182
C 2.137292 -0.109121 0.175595 0.348116 -4.232506 -5.641609
O 2.327426 0.471252 1.157530 1.081055 2.834670 4.782123
N 3.196082 -0.575826 -0.742726 1.094442 1.157144 3.226757
C 4.666304 -0.675497 -0.370292 -1.761619 -1.088954 -1.061170
C 5.514948 -0.735093 -1.499462 -4.006136 1.202607 0.469463
C 6.817209 -0.914331 -1.452763 3.791146 0.163077 2.046009
C 7.445924 -1.104324 -0.194472 -3.162518 -0.784901 0.775307
O 8.788610 -1.300566 -0.142681 0.036813 -0.030176 2.375955
C 6.562751 -1.284819 0.991086 0.847788 0.840964 -3.229996
C 5.169340 -1.034522 0.898108 -0.101678 -0.102103 -0.099483
H 0.014438 0.231823 0.005784 0.429659 -0.113306 -0.553132
H 0.284885 -1.500498 -0.244589 1.137987 0.571987 0.347711
H 0.945194 -0.426337 -1.610136 -1.054948 0.153613 2.902343
H 2.881272 -1.076015 -1.550384 0.064065 -0.435205 -0.511307
H 4.999192 -0.489788 -2.405742 -0.035977 0.117702 -0.913115
H 7.478843 -0.644045 -2.233602 0.539874 -0.240629 -1.341902
H 8.913655 -1.396999 0.862449 0.563940 0.081916 -1.698639
H 7.115526 -1.739093 1.770401 -0.026412 -0.271048 1.672641
H 4.422405 -1.172583 1.716564 0.925315 0.099074 -0.322775
20
Properties=species:S:1:pos:R:3:forces:R:3 energy=-14005.613796240943
C 0.870352 0.244109 -0.440101 0.081430 -0.856102 1.517565
C 2.146455 -0.614044 -0.203704 -0.035916 -0.828149 0.309763
O 2.067043 -1.785208 0.202471 0.469981 1.260013 -0.687893
N 3.338587 0.102457 -0.509945 0.101152 -0.627725 0.731371
C 4.729599 -0.319585 -0.253925 -2.839966 0.945691 -0.052730
C 5.635544 0.632066 0.143890 2.380465 -1.568685 0.650176
C 7.007601 0.219291 0.406548 -0.309488 1.821398 -1.345558
C 7.442338 -1.004797 -0.068552 -4.502437 -1.679278 1.634722
O 8.673214 -1.499694 0.016046 2.126880 0.898931 -1.024149
C 6.375193 -1.959806 -0.302375 4.886198 -1.678264 -1.053070
C 5.105490 -1.648239 -0.427334 -2.344082 0.467343 -0.348555
H 0.064448 -0.514426 -0.782838 0.999766 1.537812 0.525988
H 1.122321 1.042045 -1.152442 -0.564231 -0.054637 -0.081123
H 0.635441 0.713755 0.613010 -0.022339 -0.790091 -1.863691
H 3.141488 1.089022 -0.323480 0.503868 0.012897 -0.362732
H 5.364729 1.628651 0.352061 -0.448021 1.270990 0.248395
H 7.772183 0.976231 0.693185 -0.568602 -0.285182 0.055294
H 9.125801 -0.756564 -0.449484 1.015020 -0.727457 0.512407
H 6.695637 -2.992152 -0.637896 -0.166425 0.931690 0.668216
H 4.444053 -2.440443 -0.722513 -0.763251 -0.051193 -0.034396
20
Properties=species:S:1:pos:R:3:forces:R:3 energy=-14005.576428883312
C 0.843124 -0.296758 -0.227257 0.827627 0.981918 1.364426
C 2.262003 0.099621 -0.190455 3.531572 2.608661 -0.448679
O 2.715107 1.230352 0.133671 -1.449890 -1.390982 -0.212779
N 3.178300 -0.896912 -0.576394 -1.195899 1.399659 0.847125
C 4.546761 -0.961143 -0.217617 0.184108 -1.091982 -1.450485
C 5.130798 -2.302463 -0.315669 -2.820308 3.643112 0.051996
C 6.429985 -2.315515 -0.076268 4.322551 -4.947619 -0.584915
C 7.315499 -1.262775 -0.025203 0.500739 0.301493 1.115494
O 8.705377 -1.413089 0.030660 -1.870961 -2.390954 -0.488595
C 6.758365 -0.006298 0.095983 1.166077 0.645276 -0.868072
C 5.404291 0.186747 -0.093074 -1.389610 -0.926182 0.437450
H 0.230179 0.450295 -0.670073 -0.625834 0.736342 -0.575518
H 0.659197 -0.292512 0.844216 -0.833076 -0.399621 0.405804
H 0.743713 -1.240467 -0.663986 -0.684034 -1.699700 -0.666519
H 2.616733 -1.718963 -0.650952 0.555752 -1.495280 -0.229746
H 4.631850 -3.175512 -0.723138 -0.455685 -0.063533 0.448191
H 6.852935 -3.395800 -0.133541 -0.048067 1.705611 0.111849
H 8.963744 -0.544926 0.242038 1.330825 2.193651 0.533142
H 7.510499 0.809646 0.092063 -0.775344 0.174939 0.189970
H 4.995940 1.189074 -0.107378 -0.270542 0.015190 0.019864
20
Properties=species:S:1:pos:R:3:forces:R:3 energy=-14005.602377740672
C 0.962985 -0.374854 -0.362471 -2.654514 1.051649 2.580239
C 2.341109 0.089329 -0.052232 -0.366729 0.093200 -0.665760
O 2.541048 1.044604 0.706467 0.524715 -0.809553 -0.458272
N 3.246920 -0.711357 -0.721607 -0.356505 0.261215 0.515725
C 4.579779 -0.863294 -0.396315 -0.974291 -2.074616 -1.290999
C 5.191289 -2.086678 -0.579228 -1.688861 -2.546223 -1.113075
C 6.526572 -2.314918 -0.342986 -0.454687 -1.505810 -0.602037
C 7.331115 -1.223710 -0.151668 -0.624598 0.943383 1.350831
O 8.612358 -1.483015 0.018887 1.822493 -2.217689 -1.448701
C 6.715643 -0.014097 0.124793 0.099724 0.823889 1.188373
C 5.320702 0.097250 0.112869 3.392682 2.409162 0.827942
H 0.549726 -0.753384 -1.268813 0.503664 -0.300245 -1.426722
H 0.290984 0.470488 -0.053451 0.352006 -0.368953 -0.401699
H 0.654613 -1.131834 0.396471 0.404783 0.030708 -0.122521
H 2.846463 -1.497729 -1.220576 -0.183635 -0.049759 0.000201
H 4.490805 -2.921625 -0.924913 1.043228 0.675854 0.573746
H 6.945401 -3.329947 -0.222880 -0.152987 0.412390 -0.481841
H 9.187757 -0.996335 0.576768 0.385130 1.623856 1.098088
H 7.299118 0.769526 0.647317 -0.180944 -0.167534 -0.535770
H 4.908706 0.954261 0.533933 -0.890673 1.715077 0.412251
20
Properties=species:S:1:pos:R:3:forces:R:3 energy=-14005.803921896808
C 0.844716 -0.081347 -0.224430 -2.093002 -0.355804 -0.911017
C 2.327664 0.106298 -0.349732 -0.517010 -0.759024 1.049048
O 2.801758 1.134886 -0.738809 1.011532 1.953199 -0.923682
N 3.050765 -0.947815 0.214770 1.804683 -1.746347 -0.992553
C 4.580109 -1.085524 0.061693 -3.625020 1.580459 -0.556484
C 5.193206 -2.286808 -0.240658 -1.385741 -2.170315 0.277981
C 6.574929 -2.441055 -0.234418 0.506967 2.660059 -0.102626
C 7.321304 -1.231937 -0.038965 -1.111589 -0.276836 0.095496
O 8.700959 -1.300129 0.006403 -0.243178 -0.137268 -0.214849
C 6.642568 0.030442 0.119851 2.815016 -1.858922 0.000721
C 5.291687 0.115172 0.092236 -0.191859 0.843916 0.961668
H 0.227356 0.700917 -0.851190 1.315861 -1.572919 0.856261
H 0.515993 0.068344 0.821169 0.228004 -0.045071 -0.102990
H 0.570453 -1.166079 -0.481393 -0.057685 1.350700 0.111451
H 2.522577 -1.828768 0.039732 0.761315 0.437811 0.521228
H 4.541087 -3.212224 -0.420728 0.798529 1.215318 0.267427
H 7.072741 -3.335658 -0.543667 0.280145 -0.660810 0.064030
H 8.980927 -0.568640 -0.561766 0.537957 0.285941 0.034100
H 7.254788 0.887446 0.405096 0.026569 0.157652 -0.335114
H 4.968711 1.157915 0.260018 -0.861496 -0.901740 -0.100097
20
Properties=species:S:1:pos:R:3:forces:R:3 energy=-14005.593149589373
C 0.904516 -0.280616 -0.178476 -0.253396 -0.645253 1.747173
C 2.338202 0.098070 -0.128150 0.688201 0.218973 -0.185182
O 2.767656 1.157503 0.373192 -0.620186 -1.083912 -0.612320
N 3.152430 -0.929574 -0.617978 -0.618006 1.280352 0.647088
C 4.516029 -0.956635 -0.419329 1.090797 -0.908151 1.102559
C 5.136197 -2.165885 -0.629662 1.300792 -0.361302 -1.402486
C 6.542772 -2.251435 -0.612257 0.607932 -2.227894 -0.609711
C 7.359660 -1.274632 -0.075881 -4.026028 2.263188 0.028999
O 8.623898 -1.319961 0.217130 3.038869 -0.859570 -0.204152
C 6.682604 -0.062991 0.276900 0.663402 -0.175403 -0.462415
C 5.312353 0.031753 0.194147 -1.569436 1.338743 0.501765
H 0.821436 -1.390820 -0.379515 -0.554962 1.154090 0.374386
H 0.292980 0.329127 -0.798282 -0.445508 0.494880 -1.291434
H 0.547662 0.076615 0.832481 0.005330 -1.030927 -0.498357
H 2.760495 -1.788573 -1.020800 -0.093342 0.534430 0.259562
H 4.556035 -3.031630 -0.966379 0.142220 0.007733 -0.157063
H 7.015465 -3.136394 -1.102191 -0.286080 0.280322 0.786073
H 8.795504 -0.433529 0.573680 0.638401 0.050380 0.211082
H 7.330522 0.844788 0.412273 -0.664617 -0.584984 0.646542
H 4.693829 0.788362 0.727853 0.955620 0.254306 -0.882108
20