20
Properties=species:S:1:pos:R:3:forces:R:3 energy=-14005.022590236260
C 0.742017 0.031963 -0.322507 0.030846 1.159180 -0.469806
C 2.212017 -0.549222 -0.347697 -0.303840 -0.538299 1.500251
O 2.256424 -1.785816 -0.481758 0.952901 1.941785 -0.394478
N 3.379580 0.289601 0.138984 -2.411924 -3.120758 -1.933788
C 4.701434 -0.230785 0.034418 -0.859270 0.548120 -0.414094
C 5.643221 0.536959 -0.615157 -0.957693 3.595887 -1.874340
C 6.963320 0.209821 -0.627799 2.107346 -2.212397 -0.143544
C 7.362509 -1.059802 -0.135484 0.141589 -0.869453 2.548478
O 8.657176 -1.608578 -0.123671 -1.842533 -0.968858 -2.208873
C 6.422276 -1.884113 0.542591 -1.701343 1.284200 -1.490136
C 5.053185 -1.482106 0.475948 0.490317 -1.005497 1.691074
H 0.630535 1.198923 -0.415616 0.224832 -2.009049 0.105416
H 0.416936 -0.285850 0.686990 -0.141889 0.348896 -0.113666
H 0.008770 -0.522224 -1.044028 1.640564 0.934731 0.909255
H 3.209951 1.150431 0.612709 -0.199044 0.830621 0.058452
H 5.276271 1.494572 -1.232667 0.793185 -1.860326 1.580340
H 7.787837 0.705909 -1.109572 -0.045435 0.881995 -0.441759
H 9.379248 -1.285315 0.374488 0.968577 1.561381 1.242270
H 6.640024 -2.808223 1.052303 0.503395 -0.337916 -0.079927
H 4.228597 -2.047367 0.940218 0.609418 -0.164241 -0.071125
20
Properties=species:S:1:pos:R:3:forces:R:3 energy=-14005.797166452827
C 0.874115 -0.229041 0.074075 -1.614909 1.436532 1.452409
C 2.278360 -0.226044 -0.375592 0.196664 -0.790739 0.347417
O 2.566615 -0.247874 -1.548621 0.448674 0.421965 -1.677411
N 3.196226 -0.547215 0.626683 0.810073 0.771326 0.958798
C 4.613987 -0.702600 0.353782 -0.767959 -0.723309 -0.988403
C 5.589254 -0.187076 1.213523 -0.951601 -0.636279 -0.572689
C 6.946736 -0.359307 0.922571 0.660423 1.645169 2.104584
C 7.323955 -1.106570 -0.188295 -0.939921 0.505954 -0.377038
O 8.642540 -1.177672 -0.471909 0.696344 -0.433907 -0.672463
C 6.326267 -1.630903 -1.086562 1.631103 0.630998 0.067214
C 4.996203 -1.426534 -0.837130 -0.336396 0.736745 1.588786
H 0.210639 -0.765711 -0.611679 0.056811 0.333833 -0.122214
H 0.393813 0.710291 0.512095 0.631968 -0.300508 -1.425930
H 0.876248 -0.727326 1.008453 -0.192353 -1.458001 1.149545
H 2.912965 -0.215977 1.578850 0.539818 -0.503106 -0.890284
H 5.165600 0.249227 2.106930 0.485901 0.590257 0.436849
H 7.720930 0.282402 1.620774 -1.561764 -1.890732 -1.741523
H 9.070948 -0.605819 0.186542 0.332861 -0.063284 -0.010270
H 6.614769 -1.983489 -2.087363 0.208699 -0.298812 0.484834
H 4.269298 -1.797700 -1.539311 -0.334436 0.025900 -0.112212
20
Properties=species:S:1:pos:R:3:forces:R:3 energy=-14005.874517390410
C 0.869475 -0.155273 -0.474305 -1.253485 0.123622 0.633396
C 2.226741 -0.271838 0.064922 -0.789533 0.505468 -0.134000
O 2.440573 -0.363179 1.252880 -0.006853 -0.244858 1.944238
N 3.209687 -0.223736 -0.821923 2.300389 -0.490632 -2.687956
C 4.539867 -0.518220 -0.486308 4.297799 -0.333272 0.267754
C 5.450481 -0.980984 -1.544008 -3.630909 0.356103 -0.573595
C 6.722170 -1.397590 -1.382593 2.451577 0.464899 3.119751
C 7.346380 -1.181130 -0.093613 0.390866 0.157002 0.376192
O 8.685136 -1.636312 0.073620 -1.195089 0.259632 -1.270261
C 6.629064 -0.524928 0.944962 0.185421 -2.033293 -0.038971
C 5.231114 -0.354259 0.800415 -1.182473 0.513641 -1.218792
H 0.386343 -1.073652 -0.179549 -0.609217 -0.582572 -0.063735
H 0.651665 0.088689 -1.493852 0.362821 -0.075990 -1.040682
H 0.392192 0.617794 0.107514 -0.433631 0.457981 0.456249
H 3.014396 -0.305444 -1.855410 0.050383 0.161780 1.417163
H 4.994114 -1.132283 -2.553355 0.214392 0.121385 0.529722
H 7.384904 -1.874222 -2.070447 0.002303 -0.275134 -1.060622
H 9.020432 -1.693814 0.982010 -0.605853 0.312666 0.293233
H 7.120048 -0.577426 1.964195 -0.728408 0.566835 -0.931533
H 4.617240 -0.054145 1.650131 0.179497 0.034738 -0.017552
20
Properties=species:S:1:pos:R:3:forces:R:3 energy=-14005.950560902975
C 0.870719 0.023022 -0.664632 2.304924 -1.678158 -2.722736
C 2.138585 -0.415295 0.108905 1.031921 -0.360258 0.234061
O 2.128514 -1.002036 1.188979 -0.321970 0.263987 -0.325218
N 3.359844 -0.130283 -0.583667 -2.565862 0.879888 -1.798322
C 4.709527 -0.483601 -0.450188 -1.957339 -0.794549 2.270474
C 5.609940 0.101894 -1.283862 0.543394 1.480302 -1.309595
C 6.960732 -0.224556 -1.115879 0.489366 0.967108 -1.989587
C 7.364697 -1.106621 -0.163848 0.480286 -2.011233 2.443689
O 8.741694 -1.434541 0.034766 -0.658200 1.223826 0.126317
C 6.424479 -1.716260 0.742072 -0.215155 1.281972 0.081874
C 5.080390 -1.338312 0.628754 1.835730 -0.137939 -1.862610
H 0.091926 0.416150 -0.131777 -1.916052 0.916770 2.172914
H 0.448843 -0.865625 -1.240940 0.552139 0.706900 0.671949
H 1.105074 0.777590 -1.436996 0.092175 -0.113686 0.062344
H 3.121207 0.301294 -1.508170 0.556104 -0.329746 0.969352
H 5.239948 0.904410 -2.019159 0.747105 -1.250401 0.864573
H 7.719844 0.186530 -1.823412 -0.459495 -0.180356 0.583912
H 9.065700 -0.621085 0.496158 0.253993 -0.722612 -0.351442
H 6.671759 -2.265614 1.680707 0.415243 0.036884 -1.059147
H 4.372795 -1.873850 1.190464 -1.208309 -0.178699 0.937196
20
Properties=species:S:1:pos:R:3:forces:R:3 energy=-14005.890276973423
C 0.909627 0.231610 -0.387699 -1.070683 0.478433 -2.210579
C 2.138992 -0.609316 -0.180472 1.104059 0.959584 0.057610
O 2.160734 -1.765756 0.192375 -0.596311 -0.965720 0.107451
N 3.321115 0.115211 -0.370907 -0.395207 1.336349 -0.769325
C 4.665217 -0.346826 -0.315474 -1.371379 0.031135 0.914952
C 5.685203 0.579619 -0.247771 -1.372266 3.021491 -0.384854
C 6.975527 0.385862 -0.001583 3.126791 -4.076842 -0.462331
C 7.400681 -1.027154 -0.021523 -0.850492 0.095603 0.136891
O 8.729761 -1.467241 0.053708 0.179672 0.135791 -1.429150
C 6.405211 -2.026787 -0.059368 -1.270031 1.686626 0.364146
C 4.996002 -1.650379 -0.053806 1.566743 -2.398614 -0.183578
H 0.687050 0.475733 -1.494288 0.829733 -0.327803 1.066260
H 0.950839 1.215557 0.084469 -0.003192 0.009652 0.384943
H -0.011815 -0.298784 -0.157921 -0.005671 -0.227234 0.728465
H 3.174378 1.112032 -0.678717 0.438963 -1.289275 0.415949
H 5.516169 1.650561 -0.352394 -0.908943 0.204927 -0.118959
H 7.689556 1.186761 -0.045800 0.414287 0.314890 0.242969
H 8.913669 -1.968517 -0.803576 -0.243124 0.706157 1.414203
H 6.708958 -3.069804 -0.030826 -0.087898 -0.125230 0.164839
H 4.217228 -2.411202 0.154440 0.514948 0.430081 -0.439905
20
Properties=species:S:1:pos:R:3:forces:R:3 energy=-14005.897035124695
C 0.907022 0.237203 -0.270003 0.034847 -0.209428 -2.178805
C 2.114440 -0.658217 -0.225634 0.538885 0.381523 0.799867
O 2.085449 -1.795736 0.186869 -0.031211 -1.583070 0.057519
N 3.289935 0.059212 -0.460410 -0.492299 0.759638 -0.182009
C 4.649160 -0.275574 -0.227623 0.756733 -1.137025 -0.305698
C 5.664824 0.679283 -0.431546 1.028455 -1.811599 0.363888
C 7.038905 0.264223 -0.438466 1.392280 0.534558 0.477264
C 7.442825 -1.059208 -0.065618 -1.475123 0.451220 0.407948
O 8.760169 -1.503521 0.087092 -0.561571 0.472224 -0.075358
C 6.388351 -1.964777 0.232288 -0.588667 -0.063174 -0.450525
C 5.029379 -1.632941 0.089941 0.496005 2.563947 -0.948043
H 1.344570 1.162289 -0.014248 -0.310725 1.763275 0.693209
H 0.132886 -0.073256 0.401833 -0.436624 -0.278727 0.477335
H 0.496371 0.371393 -1.310360 0.181146 -0.321038 0.702893
H 3.007426 1.014795 -0.735170 1.153284 -0.399507 0.085347
H 5.333319 1.682948 -0.469578 0.178527 1.381960 -0.534948
H 7.941433 0.972842 -0.625451 -1.797572 -0.696945 0.220700
H 9.304776 -0.803614 0.507218 -0.303011 -0.115355 -0.304260
H 6.571134 -2.995651 0.507106 0.488456 -0.251906 0.068372
H 4.163289 -2.245347 0.037077 -0.251816 -1.440568 0.625306
20
Properties=species:S:1:pos:R:3:forces:R:3 energy=-14006.115645278445
C 0.957732 0.322892 -0.611330 2.171135 0.845449 -0.538459
C 2.236945 -0.295845 -0.027059 -1.726881 -0.447735 0.867634
O 2.191177 -1.081395 0.926603 0.358998 0.173914 -0.514662
N 3.353941 0.078210 -0.699324 1.020375 1.646216 -0.242555
C 4.675007 -0.335928 -0.368318 0.672551 0.076705 -0.024636
C 5.232493 -0.426960 0.920036 -1.097621 -0.642479 0.571462
C 6.531291 -0.921471 1.034549 0.761408 -1.192398 1.498776
C 7.312417 -1.385136 -0.031666 -0.857931 1.901028 -2.035520
O 8.608577 -1.729700 0.097444 0.436412 -0.726953 -1.037881
C 6.797383 -1.196887 -1.371913 -0.956149 -0.147405 1.470946
C 5.479267 -0.669767 -1.455686 0.899630 -1.092736 -2.128493
H 1.100559 0.414152 -1.687558 -0.284087 -0.378238 -0.482187
H 0.949167 1.380687 -0.323496 -0.631425 0.016630 0.591231
H 0.124713 -0.279190 -0.359907 -1.118571 -0.310564 0.442049
H 3.335466 1.036988 -1.126963 -0.246732 -1.213663 0.135528
H 4.554245 -0.340395 1.820268 0.910296 0.207932 -0.908409
H 6.983180 -1.201512 2.032878 -0.682457 0.697820 -0.614456
H 8.894734 -1.739291 1.007649 0.074091 0.010020 1.043320
H 7.281937 -1.576071 -2.288289 0.082456 0.307166 0.551187
H 5.057191 -0.674490 -2.514012 0.214500 0.269292 1.355124
20
Properties=species:S:1:pos:R:3:forces:R:3 energy=-14006.066532775023
C 0.855634 0.074775 -0.641951 -0.186502 0.116736 1.138226
C 2.271573 -0.046081 -0.039810 -1.526101 -0.933903 1.264298
O 2.358461 -0.057423 1.199419 0.735299 0.321600 -1.033009
N 3.295740 -0.275061 -0.929005 0.800813 -1.440302 -0.626225
C 4.625312 -0.788792 -0.480467 -1.956993 1.507398 -1.555708
C 5.183537 -1.997254 -0.827495 0.687040 -0.130360 0.875502
C 6.503963 -2.235355 -0.441998 0.472786 0.667460 -0.803622
C 7.352672 -1.213567 0.017758 -0.662477 -0.979689 0.547193
O 8.649335 -1.420911 0.314578 1.025753 0.875620 0.414344
C 6.800706 0.026549 0.296419 0.695457 0.100643 -0.328599
C 5.463525 0.181521 -0.024494 1.145151 3.130093 1.961292
H 0.152988 -0.611740 -0.079177 0.860450 0.421838 -0.518461
H 0.805103 -0.130043 -1.697688 -0.143836 -0.031040 -0.731580
H 0.470572 1.087152 -0.417494 0.136662 -0.122821 -0.257296
H 3.023027 -0.529547 -1.909507 0.270431 0.336485 1.175893
H 4.665254 -2.754806 -1.350205 -0.824698 -0.905781 -0.474646
H 7.000042 -3.128288 -0.749966 0.155865 -1.045241 -0.146147
H 9.006396 -2.282169 0.080621 -0.252951 -0.618994 -0.290168
H 7.446427 0.871645 0.626674 -0.559115 -0.574027 -0.126110
H 5.191313 1.230265 0.220339 -0.873035 -0.695717 -0.485177
20
Properties=species:S:1:pos:R:3:forces:R:3 energy=-14006.093027590114
C 0.957680 0.324002 0.216693 -1.042532 -1.190775 -1.115097
C 2.183110 -0.503639 -0.216794 0.061898 -0.337513 0.979406
O 2.070330 -1.724510 -0.438399 0.410337 1.385055 -0.310203
N 3.398403 0.196847 -0.032086 -1.011343 0.282214 0.365375
C 4.731304 -0.286801 -0.067376 -0.875508 -0.222981 -0.730571
C 5.737042 0.642625 0.181962 1.034491 -1.886741 -0.152420
C 7.083088 0.227156 0.116350 -0.303617 -0.695963 -0.427109
C 7.368180 -1.097629 -0.243312 -1.710680 -1.481825 0.663266
O 8.629141 -1.634709 -0.197866 -1.572291 -1.941700 -0.068550
C 6.248117 -2.099690 -0.418449 3.924145 1.276669 -0.109731
C 4.979801 -1.665281 -0.429494 -0.032347 2.818623 1.064659
H 1.048723 0.468655 1.258032 0.210644 0.381129 1.665241
H 0.034369 -0.298404 0.114593 0.696977 0.100939 -0.152571
H 0.687435 1.280185 -0.225266 0.571294 0.365267 -0.464821
H 3.295283 1.126004 0.439162 0.022432 -0.945987 -0.758905
H 5.573449 1.604910 0.579933 -0.631610 1.320798 0.219063
H 7.869336 0.937706 0.377200 0.111715 -0.095220 -0.063353
H 9.292716 -0.991728 -0.311494 1.517512 1.812537 -0.198576
H 6.532415 -3.151257 -0.555974 -0.048165 0.280873 -0.093814
H 4.137507 -2.263637 -0.556499 -1.333352 -1.225399 -0.311289
20
Properties=species:S:1:pos:R:3:forces:R:3 energy=-14005.711431747077
C 0.879821 0.112418 -0.080692 0.138147 -1.453906 1.151159
C 2.236266 -0.584517 -0.285613 -0.373548 -0.116411 0.973468
O 2.273418 -1.772267 -0.588808 0.002030 -0.288556 -0.245196
N 3.348258 0.180484 -0.062491 -0.268582 -0.406330 0.072728
C 4.674105 -0.265341 -0.018209 -0.357237 0.551455 -0.938644
C 5.676600 0.557053 -0.472788 -1.104811 3.432309 -0.097781
C 6.993813 0.248331 -0.447304 1.771298 -0.224244 0.450596
C 7.365031 -1.033927 -0.076642 -0.802987 -2.766763 0.255838
O 8.695835 -1.452021 0.005039 -0.206842 0.897689 -0.149974
C 6.296024 -1.959012 0.241585 -0.129077 -1.212663 1.270941
C 4.951251 -1.551468 0.369589 0.819927 0.287475 -0.582001
H 0.860762 0.962710 0.668671 0.121089 -0.541543 -1.086898
H 0.243751 -0.763666 0.382359 0.654320 1.753129 -1.314269
H 0.704951 0.360918 -1.142901 -1.147560 0.310318 0.473500
H 3.186515 1.140073 0.116268 -0.168955 1.264075 0.235599
H 5.464332 1.654228 -0.705397 -0.109177 -1.340268 0.081309
H 7.708856 1.054848 -0.573809 0.369626 -0.148173 -0.333488
H 8.841901 -2.355121 -0.330547 -0.486505 0.044916 0.115001
H 6.441750 -3.034432 0.601253 0.545510 1.359527 -0.641989
H 3.999751 -2.016507 0.616502 0.733333 -1.402035 0.310102
20
Properties=species:S:1:pos:R:3:forces:R:3 energy=-14005.666217098451
C 0.867168 0.100427 -0.717207 -1.185771 -0.410917 -0.419918
C 2.200109 0.010124 -0.042175 -0.995292 0.528435 -0.414121
O 2.468548 0.813170 0.821422 0.987794 0.990420 1.148786
N 3.045686 -0.960460 -0.503099 2.002684 1.383434 0.775053
C 4.452692 -0.908206 -0.355448 3.291378 -3.080271 -1.081757
C 5.356142 -1.891988 -1.107693 -1.549234 0.364343 -0.403598
C 6.765501 -2.040078 -0.958168 -2.127182 1.560426 1.239118
C 7.449123 -1.269344 0.024666 -0.303638 -0.556224 -1.667836
O 8.802763 -1.246576 0.219751 -1.065068 1.072060 1.985212
C 6.670863 -0.365072 0.651470 -2.076670 2.716915 1.799840
C 5.256224 -0.146252 0.494269 0.235563 -0.319104 0.613459
H 0.198718 0.789604 -0.098955 0.628579 -1.114893 -0.802991
H 0.482607 -0.941684 -0.864986 -0.394523 0.606263 0.332865
H 0.932827 0.476759 -1.765591 0.203519 0.123700 0.528282
H 2.624182 -1.712509 -0.964603 -0.395043 -1.440912 -1.222646
H 4.880090 -2.520052 -1.930528 0.470792 0.704280 0.945259
H 7.299650 -2.571833 -1.684979 0.730738 -1.264109 -1.018557
H 9.216801 -1.692912 -0.478838 1.242079 -1.411689 -1.939973
H 7.071617 0.396479 1.346441 0.380235 -0.610525 -0.220638
H 4.812519 0.569891 1.182395 -0.080938 0.158368 -0.175840
20
Properties=species:S:1:pos:R:3:forces:R:3 energy=-14005.534878203225
C 0.748631 -0.203963 -0.107587 -0.112483 0.647411 2.561396
C 2.226231 0.104445 -0.071358 2.999616 0.809759 -1.364420
O 2.703818 1.270574 -0.123295 -1.356790 -2.093106 0.428196
N 3.140724 -1.047028 -0.152477 -2.220528 1.389230 -0.162426
C 4.543870 -0.986097 -0.306366 0.502563 0.888519 -0.252704
C 5.276406 -2.179800 -0.558092 -2.658983 -1.269446 -0.667558
C 6.624059 -2.321629 -0.388220 1.855256 -3.383999 -0.069686
C 7.341061 -1.276197 0.057388 0.826840 2.378173 -0.041055
O 8.692290 -1.490778 0.364986 -0.747205 -0.326639 -0.264983
C 6.685858 -0.036224 -0.068814 2.202196 1.839753 0.971707
C 5.317625 0.242756 -0.241550 1.283085 -4.233153 0.514803
H 0.247822 0.614252 0.475186 0.372424 -0.323124 -0.438971
H 0.483708 -1.102305 0.472558 0.091437 -0.222039 -0.406769
H 0.286996 -0.186656 -1.068558 -0.078292 -0.197878 -1.123971
H 2.604221 -1.927522 -0.248507 0.946095 0.296501 0.055732
H 4.670496 -3.042965 -0.966070 0.607823 0.642222 0.673781
H 7.333822 -3.244317 -0.488840 -2.010579 0.919300 -0.195288
H 9.210307 -0.722582 0.659015 -0.568210 0.372919 -0.076569
H 7.465347 0.759449 0.069282 -1.090145 0.209111 -0.166885
H 4.942312 1.208684 -0.226498 -0.844121 1.656488 0.025667
20
Properties=species:S:1:pos:R:3:forces:R:3 energy=-14005.644123863340
C 1.073504 0.647809 0.308053 -1.953440 -1.645408 1.256120
C 2.120659 -0.416803 0.222587 0.833949 -1.704988 -0.814574
O 1.996756 -1.521953 0.758986 0.292879 0.653250 0.148708
N 3.258610 -0.101738 -0.563790 -0.668792 1.785842 -0.397229
C 4.602364 -0.476900 -0.478728 0.363568 -2.806241 0.705723
C 5.066918 -1.650019 0.171092 1.477208 0.683307 0.133371
C 6.482985 -1.925179 0.239355 -1.973605 -1.388246 1.592145
C 7.462656 -1.144855 -0.283337 0.260128 2.656893 -0.098657
O 8.773374 -1.284650 0.237341 -0.420702 0.403184 -1.306208
C 6.961010 -0.058577 -1.062471 0.036985 0.029886 -1.235462
C 5.554267 0.161236 -1.237032 1.451931 0.906192 -0.788457
H 1.002411 1.262746 -0.568697 0.563271 1.325879 -0.088976
H 1.234135 1.024061 1.375026 -0.493379 0.520143 -1.499081
H 0.019328 0.145254 0.266126 1.698624 0.446529 0.510645
H 3.193881 0.791101 -1.098798 -0.250560 -0.649055 0.653236
H 4.327474 -2.226333 0.689426 -0.132193 -0.692163 0.373983
H 6.888994 -2.707562 0.891284 -0.597320 -0.287577 -0.021668
H 9.422135 -0.682672 -0.225572 -0.981815 -0.587689 0.308857
H 7.677114 0.507630 -1.693953 -0.454610 -0.017812 0.323281
H 5.097324 0.790035 -2.026104 0.947873 0.368073 0.244243
20
Properties=species:S:1:pos:R:3:forces:R:3 energy=-14005.415935438370
C 0.919085 0.313256 -0.527527 -0.204888 -2.378118 2.637406
C 2.189211 -0.605948 -0.283016 -2.484134 -0.469032 -0.573166
O 2.096096 -1.825056 -0.487330 0.710286 1.007952 0.198828
N 3.288820 0.051493 0.206845 0.146698 -0.425790 -0.161782
C 4.604911 -0.320183 0.071121 4.149371 0.273582 0.040385
C 5.629820 0.686244 -0.149606 0.329269 -1.455388 1.273772
C 6.994394 0.283588 -0.102902 -1.940003 -1.608058 -0.767006
C 7.395302 -1.117571 -0.120377 1.126273 4.539513 0.845111
O 8.691940 -1.457814 -0.157999 0.637494 -2.309340 -1.594248
C 6.419252 -2.028081 -0.033010 -0.955144 -2.736168 0.582952
C 5.144913 -1.605169 0.220331 -4.138762 -0.559401 -0.854471
H 0.743761 0.457377 -1.543811 -0.075286 0.135460 -2.198443
H 1.041452 1.283146 -0.071096 -0.233193 0.516199 0.480287
H -0.022284 -0.283357 -0.136742 1.756693 1.257683 -0.440383
H 3.319567 1.041098 0.246682 -1.099488 1.380016 0.005263
H 5.415876 1.754021 -0.073770 -0.129445 0.113621 -0.370766
H 7.693087 1.042732 -0.288697 1.367931 1.012228 0.001991
H 9.443131 -1.097868 0.304503 -0.208750 1.196435 0.714281
H 6.549530 -3.132151 -0.026185 0.445826 0.727811 0.009867
H 4.302050 -2.323807 0.301808 0.799254 -0.219206 0.170122
20
Properties=species:S:1:pos:R:3:forces:R:3 energy=-14005.697875324466
C 0.853654 -0.137676 -0.556535 -1.079525 -1.683046 -2.396821
C 2.235572 0.063168 0.029162 0.266999 -1.389949 -1.539437
O 2.608876 0.962180 0.723553 0.219129 1.943402 1.406497
N 3.151830 -0.925548 -0.423838 -0.615809 -0.935751 -0.153973
C 4.561012 -0.970051 -0.268309 -0.291997 0.287592 -0.595385
C 5.226334 -2.137039 -0.845619 -0.027265 0.828071 1.119760
C 6.628255 -2.133473 -0.855830 0.857756 -1.005991 0.358018
C 7.394734 -1.113233 -0.189318 -1.780821 -0.792796 0.190177
O 8.706450 -1.479527 0.020999 -0.335521 0.215513 -0.475967
C 6.693279 -0.051618 0.437455 0.212694 0.153581 0.491603
C 5.275864 0.111447 0.316715 1.376725 -1.024019 0.404855
H 0.670782 -1.255176 -0.399126 -0.174196 1.053532 -0.567585
H 0.780744 0.091056 -1.724538 0.699547 -0.691915 2.030239
H -0.078968 0.355496 -0.240052 0.775282 0.383573 0.942436
H 2.786623 -1.791016 -0.870635 0.020133 0.977322 0.276276
H 4.621747 -3.084044 -1.006869 0.733228 1.172677 -0.304584
H 7.260044 -3.056409 -1.137927 -1.179261 1.297366 0.197403
H 9.058972 -0.873245 0.673257 0.542165 0.543990 0.508607
H 7.169879 0.598073 1.230391 -0.068578 -0.457685 -1.114384
H 4.852397 0.965226 0.893282 -0.150687 -0.875466 -0.777737
20
Properties=species:S:1:pos:R:3:forces:R:3 energy=-14005.840693921629
C 0.935420 0.323253 -0.040827 1.776234 -0.785572 0.437548
C 2.294068 -0.361610 -0.400237 -2.018961 -0.548388 -1.155238
O 2.359652 -1.442252 -1.026566 0.054093 1.327806 1.272046
N 3.356993 0.440612 -0.116278 2.613059 -0.155610 1.416413
C 4.662308 -0.194399 0.036005 0.651774 0.039553 -1.473885
C 5.496776 -0.133256 1.174809 -0.041000 -0.626824 0.721691
C 6.751755 -0.785136 1.261040 1.554679 1.141283 -0.107088
C 7.302654 -1.308073 0.030488 -0.998853 -0.516145 1.238044
O 8.534800 -1.892315 -0.084387 -0.835820 0.138119 -1.852592
C 6.458654 -1.397582 -1.098054 -0.223662 0.600573 0.140372
C 5.183618 -0.841976 -1.136338 0.569584 0.649495 1.913575
H 0.282622 -0.000379 -0.833901 -0.687040 0.529987 -0.466855
H 1.169198 1.396665 0.105501 -0.849531 -0.257899 -0.286306
H 0.563702 -0.125857 0.895018 0.069480 0.172292 -0.011792
H 3.297669 1.332294 0.400637 -0.587949 -0.695853 -0.199698
H 5.261307 0.289490 2.161671 -0.787276 0.296245 -0.519389
H 7.385552 -0.558566 2.275816 -1.310737 -0.907467 -2.574350
H 8.957291 -1.915264 0.749035 0.955603 0.044740 1.945366
H 6.782943 -1.804037 -2.041481 0.655853 -0.383003 -0.156532
H 4.671173 -0.826505 -2.077747 -0.559530 -0.063331 -0.281331
20
Properties=species:S:1:pos:R:3:forces:R:3 energy=-14005.367463371191
C 0.871080 -0.009082 -0.467435 -1.178627 2.815811 -2.494242
C 2.179754 -0.642795 -0.205788 0.454976 1.632322 -0.524187
O 2.193070 -1.721040 0.314195 0.651999 -2.177420 0.865213
N 3.302143 0.241433 -0.319731 0.815038 -1.241948 -0.072411
C 4.668186 -0.217856 -0.122651 -0.083155 -0.806579 0.739455
C 5.722511 0.545446 -0.741084 -1.834882 -0.366335 -0.212800
C 7.062769 0.147460 -0.761668 -0.014139 0.152719 1.349744
C 7.374890 -1.036575 -0.062001 1.160409 -0.326816 -1.690467
O 8.727739 -1.591320 -0.182153 -2.348589 0.151535 0.337781
C 6.340973 -1.767354 0.485631 -1.176493 0.694938 0.735593
C 4.985832 -1.406775 0.656490 -0.230191 1.710403 -0.937807
H 0.915956 1.018921 -1.118065 -0.182654 -2.317806 1.309012
H 0.610663 0.294024 0.518872 -0.498394 0.773323 1.203997
H -0.021031 -0.627518 -0.762083 1.218061 0.061837 -0.207216
H 3.263335 0.842173 -1.138712 -0.324993 0.354060 0.062853
H 5.273612 1.391718 -1.308134 1.017882 -0.085434 0.223564
H 7.891622 0.786583 -1.059315 -0.161955 0.082524 -0.560002
H 8.564315 -2.568030 -0.131812 0.385838 0.720246 0.065414
H 6.561592 -2.695255 0.859670 0.890041 -2.514269 1.297076
H 4.216488 -1.948258 1.327852 1.439829 0.686890 -1.490570
20
Properties=species:S:1:pos:R:3:forces:R:3 energy=-14004.841460669606
C 0.863789 -0.153580 -0.820921 -0.650035 0.152053 5.176458
C 2.278080 0.032937 -0.098553 -0.716351 1.483531 0.198034
O 2.675904 1.026328 0.553824 -1.414864 -0.643082 -0.945891
N 3.099189 -0.973389 -0.325032 3.258043 -2.012902 0.606309
C 4.561911 -1.058270 0.008351 -1.784391 3.892126 0.508768
C 5.141723 -2.089529 -0.592073 2.984607 -2.358539 -1.970556
C 6.566450 -2.277051 -0.658449 0.732408 0.429793 1.310415
C 7.290703 -1.211137 -0.156586 1.093292 0.197667 -0.682824
O 8.697678 -1.317869 -0.222794 -0.616311 0.748252 1.308182
C 6.705070 0.002848 0.336708 2.949353 -2.525431 -1.084751
C 5.410804 0.084918 0.525667 -4.150730 -2.538336 0.037228
H 0.847867 0.148535 -1.805156 0.091569 0.938359 -2.368697
H 0.284378 0.535182 -0.121254 0.096598 -0.304421 -1.316709
H 0.286248 -1.120973 -0.691634 1.165616 0.461922 -0.165576
H 2.747746 -1.879904 -0.634877 -0.129089 0.264991 -0.181606
H 4.650902 -2.639980 -1.368508 -1.044898 -0.880352 0.048645
H 7.249324 -3.167367 -0.864730 -1.610499 0.772806 -0.330793
H 9.000247 -0.797540 0.571748 0.117272 -0.489050 -0.954360
H 7.393787 0.752311 0.605124 0.732140 1.231293 0.662795
H 5.066402 0.779674 1.240921 -1.103731 1.179320 0.144929
20
Properties=species:S:1:pos:R:3:forces:R:3 energy=-14005.662469159181
C 0.886445 0.299502 -0.458101 0.170410 -0.692051 -1.197448
C 2.147482 -0.364268 0.146610 -0.110108 1.766206 -2.145638
O 2.068763 -0.797868 1.266033 1.026754 -0.849833 1.138256
N 3.340357 -0.216051 -0.711365 -1.359644 -1.455005 2.720738
C 4.631513 -0.786971 -0.414440 1.148672 1.855252 -3.433846
C 5.535985 -0.657680 -1.653366 -0.192828 -0.998908 2.548019
C 6.900156 -0.995328 -1.414074 -1.984974 1.164787 -1.980013
C 7.386064 -1.120211 -0.146936 -0.146418 0.219936 1.783689
O 8.745149 -1.041169 -0.104781 1.189399 -1.179288 2.633339
C 6.561123 -1.133912 1.011490 0.894998 -0.753997 -0.015312
C 5.189983 -1.033025 0.868561 -0.496920 0.358351 -1.725582
H 0.078082 -0.468040 -0.543627 0.604092 0.111920 -0.360809
H 1.096632 0.787273 -1.452034 -0.452287 -0.309625 0.764974
H 0.408890 0.990122 0.234846 0.449139 0.503262 0.274954
H 3.095726 -0.180310 -1.693358 0.090908 0.079479 -0.182920
H 5.191121 -0.271516 -2.674320 0.225738 -0.752305 1.495123
H 7.678304 -0.945891 -2.186285 -0.366466 0.010592 -0.118969
H 8.984229 -1.346529 0.839074 0.012591 0.667091 -1.744339
H 6.935053 -1.309829 2.057502 0.053118 0.269875 -1.037225
H 4.583957 -1.055668 1.742123 -0.756177 -0.015739 0.583008
20
Properties=species:S:1:pos:R:3:forces:R:3 energy=-14005.580462273458
C 0.877075 0.229505 -0.522316 -0.379529 -2.007405 -2.489486
C 2.171952 -0.242737 0.166341 0.581333 -0.224904 -3.037216
O 2.165988 -0.357461 1.362601 0.672330 -0.279368 1.482480
N 3.282634 -0.521777 -0.730560 -1.352296 0.128806 2.219241
C 4.645179 -0.812317 -0.434718 -0.514770 0.348958 -1.418191
C 5.494388 -0.903281 -1.550132 -1.551485 -1.004338 -0.627666
C 6.842350 -1.058032 -1.467983 0.202133 0.266068 0.397924
C 7.383453 -1.074035 -0.135338 1.488223 -0.168166 -2.456717
O 8.777152 -1.069547 -0.041239 -0.149325 1.368283 1.493889
C 6.575940 -1.113258 0.975439 0.223472 -0.277259 0.332678
C 5.213307 -0.988324 0.803046 -2.117856 0.516683 1.631059
H 0.179571 -0.591846 -1.008935 1.060679 0.798168 1.924078
H 0.852045 0.816686 -1.438913 1.249933 0.641191 -0.398981
H 0.447247 0.865704 0.186690 -1.460051 0.584790 1.369492
H 3.045998 -0.309065 -1.684197 0.215816 0.033355 -0.516045
H 5.046926 -1.155383 -2.519375 -0.166917 0.704819 -0.096459
H 7.245196 -1.079322 -2.512342 0.997758 -0.198448 1.422185
H 8.913066 -0.373722 0.678925 0.387366 -1.257614 -0.984764
H 7.007503 -1.296611 1.968542 -0.074922 0.207463 -0.213944
H 4.483654 -0.935921 1.634818 0.688106 -0.181081 -0.033556
20
Properties=species:S:1:pos:R:3:forces:R:3 energy=-14005.849052397418
C 0.926334 0.284987 -0.755919 1.389177 0.402466 2.401215
C 2.264186 -0.199853 -0.008816 -4.105975 0.495800 1.663945
O 2.186684 -0.373458 1.219285 0.685625 -0.283635 -0.817374
N 3.322788 -0.324045 -0.784228 1.672896 -0.564750 0.669012
C 4.636900 -0.634541 -0.360589 0.519576 -0.265204 -1.388325
C 5.016597 -1.526577 0.634983 0.508163 0.339047 0.058787
C 6.378373 -1.809731 0.719001 0.860185 0.493771 1.214427
C 7.382664 -1.182606 -0.084076 -1.332465 -1.223662 0.658361
O 8.669582 -1.499863 0.172928 1.791444 -0.118024 1.090259
C 6.977996 -0.362760 -1.164944 0.729268 -1.471596 0.411962
C 5.623609 -0.171770 -1.253359 -1.278244 2.034091 0.108475
H 0.802600 1.276519 -0.217433 -0.202148 -0.586047 -1.107620
H 0.090240 -0.334991 -0.394430 0.237856 -0.070133 -0.291686
H 1.016761 0.320507 -1.830502 -0.200794 0.267440 -0.531817
H 3.273656 0.149214 -1.650822 -0.062692 0.389159 -1.310576
H 4.339000 -1.863012 1.399457 -0.415998 -0.356580 0.110702
H 6.735872 -2.390392 1.619074 -0.307782 0.318566 -0.971003
H 8.851571 -1.788223 1.137360 -0.871169 0.532984 -1.952250
H 7.597801 -0.101840 -2.029058 0.318697 0.400899 0.596195
H 5.298750 0.724116 -1.819670 0.064381 -0.734593 -0.612690
20
Properties=species:S:1:pos:R:3:forces:R:3 energy=-14005.536523810548
C 0.837901 -0.186290 -0.282032 1.184709 -0.102835 2.265654
C 2.364813 0.082693 -0.225436 -2.285620 4.100317 -0.275251
O 2.735150 1.287640 -0.097832 0.120883 -2.340927 0.104002
N 3.106761 -0.981762 -0.502711 0.829333 -2.027362 -0.275888
C 4.509841 -1.029908 -0.324857 0.780813 -0.722293 2.067894
C 5.089865 -1.964622 0.602903 -0.113946 0.420543 -1.405375
C 6.476782 -1.954409 0.829962 -1.308062 -3.476672 1.428627
C 7.367083 -1.256794 0.063114 -0.449332 0.862757 0.125440
O 8.691507 -1.518466 -0.086406 -0.009846 0.736168 -0.430160
C 6.787241 -0.210447 -0.607245 0.487731 1.404839 -3.653337
C 5.368042 -0.049272 -0.768041 0.702406 1.597510 -1.359743
H 0.655137 -1.224949 0.023932 -0.359083 -0.006438 0.269212
H 0.550215 -0.128589 -1.293669 -0.750730 0.547725 -1.455702
H 0.346108 0.550444 0.419190 0.245430 -0.735389 -0.943868
H 2.587809 -1.875783 -0.629675 0.674735 0.747079 0.271201
H 4.482294 -2.820536 0.922662 0.137717 0.328663 0.494781
H 6.783195 -2.828063 1.453623 0.259702 0.598410 -0.226619
H 8.958500 -2.156751 0.570762 0.301293 -0.762095 0.663836
H 7.505772 0.205090 -1.439925 -1.414238 0.171155 1.744256
H 4.912300 0.852277 -1.315363 0.966105 -1.341154 0.591040
20
Properties=species:S:1:pos:R:3:forces:R:3 energy=-14005.493337477375
C 0.919392 0.168260 -0.423151 -1.973920 -0.009730 -1.830636
C 2.218355 -0.098608 0.278333 -0.011836 0.818822 -0.261963
O 2.426462 0.571526 1.311990 0.935885 -1.386458 -1.200267
N 3.106514 -0.944541 -0.446936 2.037120 1.434280 2.754748
C 4.539665 -1.074084 -0.200860 -0.590024 -0.939714 -2.253527
C 5.293285 -2.023754 -0.963687 -0.665955 -2.351308 0.237012
C 6.734515 -2.186463 -0.942826 -1.881450 -0.915202 -0.929949
C 7.431210 -1.173766 -0.345695 -1.453724 0.759562 0.633906
O 8.773096 -1.081112 -0.346950 0.631745 0.840585 0.351088
C 6.659770 -0.145667 0.236255 -0.579479 -1.209559 -0.405352
C 5.286498 -0.061553 0.334216 0.426846 0.796939 0.201324
H 0.193610 0.527159 0.291120 -0.176935 0.098705 0.837100
H 0.365563 -0.713937 -0.892831 1.002708 0.753303 0.119073
H 0.890097 1.060989 -1.170519 0.734961 -1.520337 0.777350
H 2.842014 -1.623213 -1.105665 -1.366334 -0.772323 -1.125168
H 4.674504 -2.843728 -1.479805 0.952112 1.012205 0.533349
H 7.278094 -3.031922 -1.447592 -0.789231 0.760206 0.328455
H 8.863776 -0.190234 0.070070 0.903380 -0.536329 -0.196380
H 7.111549 0.737519 0.472848 1.831415 2.476582 1.015443
H 4.820495 0.874949 0.634885 0.032716 -0.110230 0.414394
20
Properties=species:S:1:pos:R:3:forces:R:3 energy=-14005.772990102118
C 0.989363 0.127515 -0.569413 -2.172373 -2.362380 1.416868
C 2.214590 -0.336176 0.161984 0.481361 0.589985 -1.286095
O 2.280412 -0.634601 1.333818 -0.345921 -0.201964 1.295580
N 3.251820 -0.402631 -0.710333 0.565800 -0.093279 -0.815808
C 4.604590 -0.702383 -0.472733 0.223256 1.767466 -1.108713
C 5.468340 -0.625261 -1.627930 -1.521621 -1.269104 3.151312
C 6.734642 -1.013776 -1.381607 2.198090 -0.290838 0.612764
C 7.359370 -1.158940 -0.091013 -0.807319 1.098444 -1.701229
O 8.718762 -1.260332 0.038775 0.398661 -0.424657 0.348317
C 6.558577 -0.962868 1.020171 0.068863 -0.183075 -0.306936
C 5.154256 -0.744303 0.798656 2.442532 -1.177099 -0.085456
H 0.532392 -0.887142 -0.883876 -0.065135 1.101782 0.784882
H 1.029427 0.567071 -1.554384 0.397857 1.120169 -0.063385
H 0.366141 0.577835 0.258637 0.044666 -0.072409 -1.378623
H 2.980108 -0.108188 -1.655600 0.599841 -0.227174 0.306165
H 5.053124 -0.556990 -2.591836 -0.398575 0.173713 -1.382151
H 7.317791 -1.243139 -2.233952 1.110840 -0.006304 -1.056895
H 9.211219 -1.269149 -0.807964 -0.615637 -0.002592 0.106289
H 7.122919 -1.027554 1.982447 -1.094042 0.172248 -0.305816
H 4.575756 -0.849973 1.652432 -1.511144 0.287069 1.468929
20